# vtk DataFile Version 3.0
Molecular dynamics particles
ASCII
DATASET POLYDATA
POINTS 125 double
0.197359 0.197359 0.197359
0.21389 0.21389 1.4816
0.213297 0.213297 3
0.21389 0.21389 4.5184
0.197359 0.197359 5.80264
0.21389 1.4816 0.21389
0.233047 1.48019 1.48019
0.232442 1.48048 3
0.233047 1.48019 4.51981
0.21389 1.4816 5.78611
0.213297 3 0.213297
0.232442 3 1.48048
0.231877 3 3
0.232442 3 4.51952
0.213297 3 5.7867
0.21389 4.5184 0.21389
0.233047 4.51981 1.48019
0.232442 4.51952 3
0.233047 4.51981 4.51981
0.21389 4.5184 5.78611
0.197359 5.80264 0.197359
0.21389 5.78611 1.4816
0.213297 5.7867 3
0.21389 5.78611 4.5184
0.197359 5.80264 5.80264
1.4816 0.21389 0.21389
1.48019 0.233047 1.48019
1.48048 0.232442 3
1.48019 0.233047 4.51981
1.4816 0.21389 5.78611
1.48019 1.48019 0.233047
1.47874 1.47874 1.47874
1.47909 1.47909 3
1.47874 1.47874 4.52126
1.48019 1.48019 5.76695
1.48048 3 0.232442
1.47909 3 1.47909
1.47946 3 3
1.47909 3 4.52091
1.48048 3 5.76756
1.48019 4.51981 0.233047
1.47874 4.52126 1.47874
1.47909 4.52091 3
1.47874 4.52126 4.52126
1.48019 4.51981 5.76695
1.4816 5.78611 0.21389
1.48019 5.76695 1.48019
1.48048 5.76756 3
1.48019 5.76695 4.51981
1.4816 5.78611 5.78611
3 0.213297 0.213297
3 0.232442 1.48048
3 0.231877 3
3 0.232442 4.51952
3 0.213297 5.7867
3 1.48048 0.232442
3 1.47909 1.47909
3 1.47946 3
3 1.47909 4.52091
3 1.48048 5.76756
3 3 0.231877
3 3 1.47946
3 3 3
3 3 4.52054
3 3 5.76812
3 4.51952 0.232442
3 4.52091 1.47909
3 4.52054 3
3 4.52091 4.52091
3 4.51952 5.76756
3 5.7867 0.213297
3 5.76756 1.48048
3 5.76812 3
3 5.76756 4.51952
3 5.7867 5.7867
4.5184 0.21389 0.21389
4.51981 0.233047 1.48019
4.51952 0.232442 3
4.51981 0.233047 4.51981
4.5184 0.21389 5.78611
4.51981 1.48019 0.233047
4.52126 1.47874 1.47874
4.52091 1.47909 3
4.52126 1.47874 4.52126
4.51981 1.48019 5.76695
4.51952 3 0.232442
4.52091 3 1.47909
4.52054 3 3
4.52091 3 4.52091
4.51952 3 5.76756
4.51981 4.51981 0.233047
4.52126 4.52126 1.47874
4.52091 4.52091 3
4.52126 4.52126 4.52126
4.51981 4.51981 5.76695
4.5184 5.78611 0.21389
4.51981 5.76695 1.48019
4.51952 5.76756 3
4.51981 5.76695 4.51981
4.5184 5.78611 5.78611
5.80264 0.197359 0.197359
5.78611 0.21389 1.4816
5.7867 0.213297 3
5.78611 0.21389 4.5184
5.80264 0.197359 5.80264
5.78611 1.4816 0.21389
5.76695 1.48019 1.48019
5.76756 1.48048 3
5.76695 1.48019 4.51981
5.78611 1.4816 5.78611
5.7867 3 0.213297
5.76756 3 1.48048
5.76812 3 3
5.76756 3 4.51952
5.7867 3 5.7867
5.78611 4.5184 0.21389
5.76695 4.51981 1.48019
5.76756 4.51952 3
5.76695 4.51981 4.51981
5.78611 4.5184 5.78611
5.80264 5.80264 0.197359
5.78611 5.78611 1.4816
5.7867 5.7867 3
5.78611 5.78611 4.5184
5.80264 5.80264 5.80264

VERTICES 125 250
1 0
1 1
1 2
1 3
1 4
1 5
1 6
1 7
1 8
1 9
1 10
1 11
1 12
1 13
1 14
1 15
1 16
1 17
1 18
1 19
1 20
1 21
1 22
1 23
1 24
1 25
1 26
1 27
1 28
1 29
1 30
1 31
1 32
1 33
1 34
1 35
1 36
1 37
1 38
1 39
1 40
1 41
1 42
1 43
1 44
1 45
1 46
1 47
1 48
1 49
1 50
1 51
1 52
1 53
1 54
1 55
1 56
1 57
1 58
1 59
1 60
1 61
1 62
1 63
1 64
1 65
1 66
1 67
1 68
1 69
1 70
1 71
1 72
1 73
1 74
1 75
1 76
1 77
1 78
1 79
1 80
1 81
1 82
1 83
1 84
1 85
1 86
1 87
1 88
1 89
1 90
1 91
1 92
1 93
1 94
1 95
1 96
1 97
1 98
1 99
1 100
1 101
1 102
1 103
1 104
1 105
1 106
1 107
1 108
1 109
1 110
1 111
1 112
1 113
1 114
1 115
1 116
1 117
1 118
1 119
1 120
1 121
1 122
1 123
1 124

POINT_DATA 125
SCALARS speed double 1
LOOKUP_TABLE default
1.57841
1.41031
1.38307
1.41031
1.57841
1.41031
1.11316
1.08206
1.11316
1.41031
1.38307
1.08206
1.05203
1.08206
1.38307
1.41031
1.11316
1.08206
1.11316
1.41031
1.57841
1.41031
1.38307
1.41031
1.57841
1.41031
1.11316
1.08206
1.11316
1.41031
1.11316
0.381116
0.304806
0.381116
1.11316
1.08206
0.304806
0.211056
0.304806
1.08206
1.11316
0.381116
0.304806
0.381116
1.11316
1.41031
1.11316
1.08206
1.11316
1.41031
1.38307
1.08206
1.05203
1.08206
1.38307
1.08206
0.304806
0.211056
0.304806
1.08206
1.05203
0.211056
1.49127e-14
0.211056
1.05203
1.08206
0.304806
0.211056
0.304806
1.08206
1.38307
1.08206
1.05203
1.08206
1.38307
1.41031
1.11316
1.08206
1.11316
1.41031
1.11316
0.381116
0.304806
0.381116
1.11316
1.08206
0.304806
0.211056
0.304806
1.08206
1.11316
0.381116
0.304806
0.381116
1.11316
1.41031
1.11316
1.08206
1.11316
1.41031
1.57841
1.41031
1.38307
1.41031
1.57841
1.41031
1.11316
1.08206
1.11316
1.41031
1.38307
1.08206
1.05203
1.08206
1.38307
1.41031
1.11316
1.08206
1.11316
1.41031
1.57841
1.41031
1.38307
1.41031
1.57841

SCALARS mass double 1
LOOKUP_TABLE default
1
1
1
1
1
1
1
1
1
1
1
1
1
1
1
1
1
1
1
1
1
1
1
1
1
1
1
1
1
1
1
1
1
1
1
1
1
1
1
1
1
1
1
1
1
1
1
1
1
1
1
1
1
1
1
1
1
1
1
1
1
1
1
1
1
1
1
1
1
1
1
1
1
1
1
1
1
1
1
1
1
1
1
1
1
1
1
1
1
1
1
1
1
1
1
1
1
1
1
1
1
1
1
1
1
1
1
1
1
1
1
1
1
1
1
1
1
1
1
1
1
1
1
1
1
