# vtk DataFile Version 3.0
Molecular dynamics particles
ASCII
DATASET POLYDATA
POINTS 125 double
0.226074 0.226074 0.226074
0.245019 0.245019 1.47535
0.24404 0.24404 3
0.245019 0.245019 4.52465
0.226074 0.226074 5.77393
0.245019 1.47535 0.245019
0.266864 1.47339 1.47339
0.26582 1.47381 3
0.266864 1.47339 4.52661
0.245019 1.47535 5.75498
0.24404 3 0.24404
0.26582 3 1.47381
0.264833 3 3
0.26582 3 4.52619
0.24404 3 5.75596
0.245019 4.52465 0.245019
0.266864 4.52661 1.47339
0.26582 4.52619 3
0.266864 4.52661 4.52661
0.245019 4.52465 5.75498
0.226074 5.77393 0.226074
0.245019 5.75498 1.47535
0.24404 5.75596 3
0.245019 5.75498 4.52465
0.226074 5.77393 5.77393
1.47535 0.245019 0.245019
1.47339 0.266864 1.47339
1.47381 0.26582 3
1.47339 0.266864 4.52661
1.47535 0.245019 5.75498
1.47339 1.47339 0.266864
1.47139 1.47139 1.47139
1.47192 1.47192 3
1.47139 1.47139 4.52861
1.47339 1.47339 5.73314
1.47381 3 0.26582
1.47192 3 1.47192
1.47245 3 3
1.47192 3 4.52808
1.47381 3 5.73418
1.47339 4.52661 0.266864
1.47139 4.52861 1.47139
1.47192 4.52808 3
1.47139 4.52861 4.52861
1.47339 4.52661 5.73314
1.47535 5.75498 0.245019
1.47339 5.73314 1.47339
1.47381 5.73418 3
1.47339 5.73314 4.52661
1.47535 5.75498 5.75498
3 0.24404 0.24404
3 0.26582 1.47381
3 0.264833 3
3 0.26582 4.52619
3 0.24404 5.75596
3 1.47381 0.26582
3 1.47192 1.47192
3 1.47245 3
3 1.47192 4.52808
3 1.47381 5.73418
3 3 0.264833
3 3 1.47245
3 3 3
3 3 4.52755
3 3 5.73517
3 4.52619 0.26582
3 4.52808 1.47192
3 4.52755 3
3 4.52808 4.52808
3 4.52619 5.73418
3 5.75596 0.24404
3 5.73418 1.47381
3 5.73517 3
3 5.73418 4.52619
3 5.75596 5.75596
4.52465 0.245019 0.245019
4.52661 0.266864 1.47339
4.52619 0.26582 3
4.52661 0.266864 4.52661
4.52465 0.245019 5.75498
4.52661 1.47339 0.266864
4.52861 1.47139 1.47139
4.52808 1.47192 3
4.52861 1.47139 4.52861
4.52661 1.47339 5.73314
4.52619 3 0.26582
4.52808 3 1.47192
4.52755 3 3
4.52808 3 4.52808
4.52619 3 5.73418
4.52661 4.52661 0.266864
4.52861 4.52861 1.47139
4.52808 4.52808 3
4.52861 4.52861 4.52861
4.52661 4.52661 5.73314
4.52465 5.75498 0.245019
4.52661 5.73314 1.47339
4.52619 5.73418 3
4.52661 5.73314 4.52661
4.52465 5.75498 5.75498
5.77393 0.226074 0.226074
5.75498 0.245019 1.47535
5.75596 0.24404 3
5.75498 0.245019 4.52465
5.77393 0.226074 5.77393
5.75498 1.47535 0.245019
5.73314 1.47339 1.47339
5.73418 1.47381 3
5.73314 1.47339 4.52661
5.75498 1.47535 5.75498
5.75596 3 0.24404
5.73418 3 1.47381
5.73517 3 3
5.73418 3 4.52619
5.75596 3 5.75596
5.75498 4.52465 0.245019
5.73314 4.52661 1.47339
5.73418 4.52619 3
5.73314 4.52661 4.52661
5.75498 4.52465 5.75498
5.77393 5.77393 0.226074
5.75498 5.75498 1.47535
5.75596 5.75596 3
5.75498 5.75498 4.52465
5.77393 5.77393 5.77393

VERTICES 125 250
1 0
1 1
1 2
1 3
1 4
1 5
1 6
1 7
1 8
1 9
1 10
1 11
1 12
1 13
1 14
1 15
1 16
1 17
1 18
1 19
1 20
1 21
1 22
1 23
1 24
1 25
1 26
1 27
1 28
1 29
1 30
1 31
1 32
1 33
1 34
1 35
1 36
1 37
1 38
1 39
1 40
1 41
1 42
1 43
1 44
1 45
1 46
1 47
1 48
1 49
1 50
1 51
1 52
1 53
1 54
1 55
1 56
1 57
1 58
1 59
1 60
1 61
1 62
1 63
1 64
1 65
1 66
1 67
1 68
1 69
1 70
1 71
1 72
1 73
1 74
1 75
1 76
1 77
1 78
1 79
1 80
1 81
1 82
1 83
1 84
1 85
1 86
1 87
1 88
1 89
1 90
1 91
1 92
1 93
1 94
1 95
1 96
1 97
1 98
1 99
1 100
1 101
1 102
1 103
1 104
1 105
1 106
1 107
1 108
1 109
1 110
1 111
1 112
1 113
1 114
1 115
1 116
1 117
1 118
1 119
1 120
1 121
1 122
1 123
1 124

POINT_DATA 125
SCALARS speed double 1
LOOKUP_TABLE default
1.73924
1.55533
1.51623
1.55533
1.73924
1.55533
1.23158
1.18718
1.23158
1.55533
1.51623
1.18718
1.14461
1.18718
1.51623
1.55533
1.23158
1.18718
1.23158
1.55533
1.73924
1.55533
1.51623
1.55533
1.73924
1.55533
1.23158
1.18718
1.23158
1.55533
1.23158
0.467643
0.371923
0.467643
1.23158
1.18718
0.371923
0.25612
0.371923
1.18718
1.23158
0.467643
0.371923
0.467643
1.23158
1.55533
1.23158
1.18718
1.23158
1.55533
1.51623
1.18718
1.14461
1.18718
1.51623
1.18718
0.371923
0.25612
0.371923
1.18718
1.14461
0.25612
1.536e-14
0.25612
1.14461
1.18718
0.371923
0.25612
0.371923
1.18718
1.51623
1.18718
1.14461
1.18718
1.51623
1.55533
1.23158
1.18718
1.23158
1.55533
1.23158
0.467643
0.371923
0.467643
1.23158
1.18718
0.371923
0.25612
0.371923
1.18718
1.23158
0.467643
0.371923
0.467643
1.23158
1.55533
1.23158
1.18718
1.23158
1.55533
1.73924
1.55533
1.51623
1.55533
1.73924
1.55533
1.23158
1.18718
1.23158
1.55533
1.51623
1.18718
1.14461
1.18718
1.51623
1.55533
1.23158
1.18718
1.23158
1.55533
1.73924
1.55533
1.51623
1.55533
1.73924

SCALARS mass double 1
LOOKUP_TABLE default
1
1
1
1
1
1
1
1
1
1
1
1
1
1
1
1
1
1
1
1
1
1
1
1
1
1
1
1
1
1
1
1
1
1
1
1
1
1
1
1
1
1
1
1
1
1
1
1
1
1
1
1
1
1
1
1
1
1
1
1
1
1
1
1
1
1
1
1
1
1
1
1
1
1
1
1
1
1
1
1
1
1
1
1
1
1
1
1
1
1
1
1
1
1
1
1
1
1
1
1
1
1
1
1
1
1
1
1
1
1
1
1
1
1
1
1
1
1
1
1
1
1
1
1
1
