# vtk DataFile Version 3.0
Molecular dynamics particles
ASCII
DATASET POLYDATA
POINTS 125 double
0.379353 0.379353 0.379353
0.404586 0.404586 1.43497
0.399748 0.399748 3
0.404586 0.404586 4.56503
0.379353 0.379353 5.62065
0.404586 1.43497 0.404586
0.429416 1.43625 1.43625
0.424412 1.43797 3
0.429416 1.43625 4.56375
0.404586 1.43497 5.59541
0.399748 3 0.399748
0.424412 3 1.43797
0.419731 3 3
0.424412 3 4.56203
0.399748 3 5.60025
0.404586 4.56503 0.404586
0.429416 4.56375 1.43625
0.424412 4.56203 3
0.429416 4.56375 4.56375
0.404586 4.56503 5.59541
0.379353 5.62065 0.379353
0.404586 5.59541 1.43497
0.399748 5.60025 3
0.404586 5.59541 4.56503
0.379353 5.62065 5.62065
1.43497 0.404586 0.404586
1.43625 0.429416 1.43625
1.43797 0.424412 3
1.43625 0.429416 4.56375
1.43497 0.404586 5.59541
1.43625 1.43625 0.429416
1.44318 1.44318 1.44318
1.44449 1.44449 3
1.44318 1.44318 4.55682
1.43625 1.43625 5.57058
1.43797 3 0.424412
1.44449 3 1.44449
1.44583 3 3
1.44449 3 4.55551
1.43797 3 5.57559
1.43625 4.56375 0.429416
1.44318 4.55682 1.44318
1.44449 4.55551 3
1.44318 4.55682 4.55682
1.43625 4.56375 5.57058
1.43497 5.59541 0.404586
1.43625 5.57058 1.43625
1.43797 5.57559 3
1.43625 5.57058 4.56375
1.43497 5.59541 5.59541
3 0.399748 0.399748
3 0.424412 1.43797
3 0.419731 3
3 0.424412 4.56203
3 0.399748 5.60025
3 1.43797 0.424412
3 1.44449 1.44449
3 1.44583 3
3 1.44449 4.55551
3 1.43797 5.57559
3 3 0.419731
3 3 1.44583
3 3 3
3 3 4.55417
3 3 5.58027
3 4.56203 0.424412
3 4.55551 1.44449
3 4.55417 3
3 4.55551 4.55551
3 4.56203 5.57559
3 5.60025 0.399748
3 5.57559 1.43797
3 5.58027 3
3 5.57559 4.56203
3 5.60025 5.60025
4.56503 0.404586 0.404586
4.56375 0.429416 1.43625
4.56203 0.424412 3
4.56375 0.429416 4.56375
4.56503 0.404586 5.59541
4.56375 1.43625 0.429416
4.55682 1.44318 1.44318
4.55551 1.44449 3
4.55682 1.44318 4.55682
4.56375 1.43625 5.57058
4.56203 3 0.424412
4.55551 3 1.44449
4.55417 3 3
4.55551 3 4.55551
4.56203 3 5.57559
4.56375 4.56375 0.429416
4.55682 4.55682 1.44318
4.55551 4.55551 3
4.55682 4.55682 4.55682
4.56375 4.56375 5.57058
4.56503 5.59541 0.404586
4.56375 5.57058 1.43625
4.56203 5.57559 3
4.56375 5.57058 4.56375
4.56503 5.59541 5.59541
5.62065 0.379353 0.379353
5.59541 0.404586 1.43497
5.60025 0.399748 3
5.59541 0.404586 4.56503
5.62065 0.379353 5.62065
5.59541 1.43497 0.404586
5.57058 1.43625 1.43625
5.57559 1.43797 3
5.57058 1.43625 4.56375
5.59541 1.43497 5.59541
5.60025 3 0.399748
5.57559 3 1.43797
5.58027 3 3
5.57559 3 4.56203
5.60025 3 5.60025
5.59541 4.56503 0.404586
5.57058 4.56375 1.43625
5.57559 4.56203 3
5.57058 4.56375 4.56375
5.59541 4.56503 5.59541
5.62065 5.62065 0.379353
5.59541 5.59541 1.43497
5.60025 5.60025 3
5.59541 5.59541 4.56503
5.62065 5.62065 5.62065

VERTICES 125 250
1 0
1 1
1 2
1 3
1 4
1 5
1 6
1 7
1 8
1 9
1 10
1 11
1 12
1 13
1 14
1 15
1 16
1 17
1 18
1 19
1 20
1 21
1 22
1 23
1 24
1 25
1 26
1 27
1 28
1 29
1 30
1 31
1 32
1 33
1 34
1 35
1 36
1 37
1 38
1 39
1 40
1 41
1 42
1 43
1 44
1 45
1 46
1 47
1 48
1 49
1 50
1 51
1 52
1 53
1 54
1 55
1 56
1 57
1 58
1 59
1 60
1 61
1 62
1 63
1 64
1 65
1 66
1 67
1 68
1 69
1 70
1 71
1 72
1 73
1 74
1 75
1 76
1 77
1 78
1 79
1 80
1 81
1 82
1 83
1 84
1 85
1 86
1 87
1 88
1 89
1 90
1 91
1 92
1 93
1 94
1 95
1 96
1 97
1 98
1 99
1 100
1 101
1 102
1 103
1 104
1 105
1 106
1 107
1 108
1 109
1 110
1 111
1 112
1 113
1 114
1 115
1 116
1 117
1 118
1 119
1 120
1 121
1 122
1 123
1 124

POINT_DATA 125
SCALARS speed double 1
LOOKUP_TABLE default
2.07981
1.5854
1.51948
1.5854
2.07981
1.5854
0.936444
0.910531
0.936444
1.5854
1.51948
0.910531
0.886154
0.910531
1.51948
1.5854
0.936444
0.910531
0.936444
1.5854
2.07981
1.5854
1.51948
1.5854
2.07981
1.5854
0.936444
0.910531
0.936444
1.5854
0.936444
0.431964
0.311892
0.431964
0.936444
0.910531
0.311892
0.196651
0.311892
0.910531
0.936444
0.431964
0.311892
0.431964
0.936444
1.5854
0.936444
0.910531
0.936444
1.5854
1.51948
0.910531
0.886154
0.910531
1.51948
0.910531
0.311892
0.196651
0.311892
0.910531
0.886154
0.196651
2.16431e-14
0.196651
0.886154
0.910531
0.311892
0.196651
0.311892
0.910531
1.51948
0.910531
0.886154
0.910531
1.51948
1.5854
0.936444
0.910531
0.936444
1.5854
0.936444
0.431964
0.311892
0.431964
0.936444
0.910531
0.311892
0.196651
0.311892
0.910531
0.936444
0.431964
0.311892
0.431964
0.936444
1.5854
0.936444
0.910531
0.936444
1.5854
2.07981
1.5854
1.51948
1.5854
2.07981
1.5854
0.936444
0.910531
0.936444
1.5854
1.51948
0.910531
0.886154
0.910531
1.51948
1.5854
0.936444
0.910531
0.936444
1.5854
2.07981
1.5854
1.51948
1.5854
2.07981

SCALARS mass double 1
LOOKUP_TABLE default
1
1
1
1
1
1
1
1
1
1
1
1
1
1
1
1
1
1
1
1
1
1
1
1
1
1
1
1
1
1
1
1
1
1
1
1
1
1
1
1
1
1
1
1
1
1
1
1
1
1
1
1
1
1
1
1
1
1
1
1
1
1
1
1
1
1
1
1
1
1
1
1
1
1
1
1
1
1
1
1
1
1
1
1
1
1
1
1
1
1
1
1
1
1
1
1
1
1
1
1
1
1
1
1
1
1
1
1
1
1
1
1
1
1
1
1
1
1
1
1
1
1
1
1
1
