# vtk DataFile Version 3.0
Molecular dynamics particles
ASCII
DATASET POLYDATA
POINTS 125 double
0.0482299 0.0482299 0.0482299
0.0521814 0.0521814 1.49963
0.0522853 0.0522853 3
0.0521814 0.0521814 4.50037
0.0482299 0.0482299 5.95177
0.0521814 1.49963 0.0521814
0.0568142 1.49976 1.49976
0.0569585 1.4998 3
0.0568142 1.49976 4.50024
0.0521814 1.49963 5.94782
0.0522853 3 0.0522853
0.0569585 3 1.4998
0.0571108 3 3
0.0569585 3 4.5002
0.0522853 3 5.94771
0.0521814 4.50037 0.0521814
0.0568142 4.50024 1.49976
0.0569585 4.5002 3
0.0568142 4.50024 4.50024
0.0521814 4.50037 5.94782
0.0482299 5.95177 0.0482299
0.0521814 5.94782 1.49963
0.0522853 5.94771 3
0.0521814 5.94782 4.50037
0.0482299 5.95177 5.95177
1.49963 0.0521814 0.0521814
1.49976 0.0568142 1.49976
1.4998 0.0569585 3
1.49976 0.0568142 4.50024
1.49963 0.0521814 5.94782
1.49976 1.49976 0.0568142
1.49995 1.49995 1.49995
1.5 1.5 3
1.49995 1.49995 4.50005
1.49976 1.49976 5.94319
1.4998 3 0.0569585
1.5 3 1.5
1.50005 3 3
1.5 3 4.5
1.4998 3 5.94304
1.49976 4.50024 0.0568142
1.49995 4.50005 1.49995
1.5 4.5 3
1.49995 4.50005 4.50005
1.49976 4.50024 5.94319
1.49963 5.94782 0.0521814
1.49976 5.94319 1.49976
1.4998 5.94304 3
1.49976 5.94319 4.50024
1.49963 5.94782 5.94782
3 0.0522853 0.0522853
3 0.0569585 1.4998
3 0.0571108 3
3 0.0569585 4.5002
3 0.0522853 5.94771
3 1.4998 0.0569585
3 1.5 1.5
3 1.50005 3
3 1.5 4.5
3 1.4998 5.94304
3 3 0.0571108
3 3 1.50005
3 3 3
3 3 4.49995
3 3 5.94289
3 4.5002 0.0569585
3 4.5 1.5
3 4.49995 3
3 4.5 4.5
3 4.5002 5.94304
3 5.94771 0.0522853
3 5.94304 1.4998
3 5.94289 3
3 5.94304 4.5002
3 5.94771 5.94771
4.50037 0.0521814 0.0521814
4.50024 0.0568142 1.49976
4.5002 0.0569585 3
4.50024 0.0568142 4.50024
4.50037 0.0521814 5.94782
4.50024 1.49976 0.0568142
4.50005 1.49995 1.49995
4.5 1.5 3
4.50005 1.49995 4.50005
4.50024 1.49976 5.94319
4.5002 3 0.0569585
4.5 3 1.5
4.49995 3 3
4.5 3 4.5
4.5002 3 5.94304
4.50024 4.50024 0.0568142
4.50005 4.50005 1.49995
4.5 4.5 3
4.50005 4.50005 4.50005
4.50024 4.50024 5.94319
4.50037 5.94782 0.0521814
4.50024 5.94319 1.49976
4.5002 5.94304 3
4.50024 5.94319 4.50024
4.50037 5.94782 5.94782
5.95177 0.0482299 0.0482299
5.94782 0.0521814 1.49963
5.94771 0.0522853 3
5.94782 0.0521814 4.50037
5.95177 0.0482299 5.95177
5.94782 1.49963 0.0521814
5.94319 1.49976 1.49976
5.94304 1.4998 3
5.94319 1.49976 4.50024
5.94782 1.49963 5.94782
5.94771 3 0.0522853
5.94304 3 1.4998
5.94289 3 3
5.94304 3 4.5002
5.94771 3 5.94771
5.94782 4.50037 0.0521814
5.94319 4.50024 1.49976
5.94304 4.5002 3
5.94319 4.50024 4.50024
5.94782 4.50037 5.94782
5.95177 5.95177 0.0482299
5.94782 5.94782 1.49963
5.94771 5.94771 3
5.94782 5.94782 4.50037
5.95177 5.95177 5.95177

VERTICES 125 250
1 0
1 1
1 2
1 3
1 4
1 5
1 6
1 7
1 8
1 9
1 10
1 11
1 12
1 13
1 14
1 15
1 16
1 17
1 18
1 19
1 20
1 21
1 22
1 23
1 24
1 25
1 26
1 27
1 28
1 29
1 30
1 31
1 32
1 33
1 34
1 35
1 36
1 37
1 38
1 39
1 40
1 41
1 42
1 43
1 44
1 45
1 46
1 47
1 48
1 49
1 50
1 51
1 52
1 53
1 54
1 55
1 56
1 57
1 58
1 59
1 60
1 61
1 62
1 63
1 64
1 65
1 66
1 67
1 68
1 69
1 70
1 71
1 72
1 73
1 74
1 75
1 76
1 77
1 78
1 79
1 80
1 81
1 82
1 83
1 84
1 85
1 86
1 87
1 88
1 89
1 90
1 91
1 92
1 93
1 94
1 95
1 96
1 97
1 98
1 99
1 100
1 101
1 102
1 103
1 104
1 105
1 106
1 107
1 108
1 109
1 110
1 111
1 112
1 113
1 114
1 115
1 116
1 117
1 118
1 119
1 120
1 121
1 122
1 123
1 124

POINT_DATA 125
SCALARS speed double 1
LOOKUP_TABLE default
0.66392
0.587012
0.58731
0.587012
0.66392
0.587012
0.452408
0.45275
0.452408
0.587012
0.58731
0.45275
0.453161
0.45275
0.58731
0.587012
0.452408
0.45275
0.452408
0.587012
0.66392
0.587012
0.58731
0.587012
0.66392
0.587012
0.452408
0.45275
0.452408
0.587012
0.452408
0.0236485
0.0188469
0.0236485
0.452408
0.45275
0.0188469
0.0129755
0.0188469
0.45275
0.452408
0.0236485
0.0188469
0.0236485
0.452408
0.587012
0.452408
0.45275
0.452408
0.587012
0.58731
0.45275
0.453161
0.45275
0.58731
0.45275
0.0188469
0.0129755
0.0188469
0.45275
0.453161
0.0129755
3.63702e-15
0.0129755
0.453161
0.45275
0.0188469
0.0129755
0.0188469
0.45275
0.58731
0.45275
0.453161
0.45275
0.58731
0.587012
0.452408
0.45275
0.452408
0.587012
0.452408
0.0236485
0.0188469
0.0236485
0.452408
0.45275
0.0188469
0.0129755
0.0188469
0.45275
0.452408
0.0236485
0.0188469
0.0236485
0.452408
0.587012
0.452408
0.45275
0.452408
0.587012
0.66392
0.587012
0.58731
0.587012
0.66392
0.587012
0.452408
0.45275
0.452408
0.587012
0.58731
0.45275
0.453161
0.45275
0.58731
0.587012
0.452408
0.45275
0.452408
0.587012
0.66392
0.587012
0.58731
0.587012
0.66392

SCALARS mass double 1
LOOKUP_TABLE default
1
1
1
1
1
1
1
1
1
1
1
1
1
1
1
1
1
1
1
1
1
1
1
1
1
1
1
1
1
1
1
1
1
1
1
1
1
1
1
1
1
1
1
1
1
1
1
1
1
1
1
1
1
1
1
1
1
1
1
1
1
1
1
1
1
1
1
1
1
1
1
1
1
1
1
1
1
1
1
1
1
1
1
1
1
1
1
1
1
1
1
1
1
1
1
1
1
1
1
1
1
1
1
1
1
1
1
1
1
1
1
1
1
1
1
1
1
1
1
1
1
1
1
1
1
