# vtk DataFile Version 3.0
Molecular dynamics particles
ASCII
DATASET POLYDATA
POINTS 125 double
0.268841 0.268841 0.268841
0.291187 0.291187 1.46468
0.289428 0.289428 3
0.291187 0.291187 4.53532
0.268841 0.268841 5.73116
0.291187 1.46468 0.291187
0.316626 1.46196 1.46196
0.31469 1.4627 3
0.316626 1.46196 4.53804
0.291187 1.46468 5.70881
0.289428 3 0.289428
0.31469 3 1.4627
0.312854 3 3
0.31469 3 4.5373
0.289428 3 5.71057
0.291187 4.53532 0.291187
0.316626 4.53804 1.46196
0.31469 4.5373 3
0.316626 4.53804 4.53804
0.291187 4.53532 5.70881
0.268841 5.73116 0.268841
0.291187 5.70881 1.46468
0.289428 5.71057 3
0.291187 5.70881 4.53532
0.268841 5.73116 5.73116
1.46468 0.291187 0.291187
1.46196 0.316626 1.46196
1.4627 0.31469 3
1.46196 0.316626 4.53804
1.46468 0.291187 5.70881
1.46196 1.46196 0.316626
1.45942 1.45942 1.45942
1.46032 1.46032 3
1.45942 1.45942 4.54058
1.46196 1.46196 5.68337
1.4627 3 0.31469
1.46032 3 1.46032
1.46121 3 3
1.46032 3 4.53968
1.4627 3 5.68531
1.46196 4.53804 0.316626
1.45942 4.54058 1.45942
1.46032 4.53968 3
1.45942 4.54058 4.54058
1.46196 4.53804 5.68337
1.46468 5.70881 0.291187
1.46196 5.68337 1.46196
1.4627 5.68531 3
1.46196 5.68337 4.53804
1.46468 5.70881 5.70881
3 0.289428 0.289428
3 0.31469 1.4627
3 0.312854 3
3 0.31469 4.5373
3 0.289428 5.71057
3 1.4627 0.31469
3 1.46032 1.46032
3 1.46121 3
3 1.46032 4.53968
3 1.4627 5.68531
3 3 0.312854
3 3 1.46121
3 3 3
3 3 4.53879
3 3 5.68715
3 4.5373 0.31469
3 4.53968 1.46032
3 4.53879 3
3 4.53968 4.53968
3 4.5373 5.68531
3 5.71057 0.289428
3 5.68531 1.4627
3 5.68715 3
3 5.68531 4.5373
3 5.71057 5.71057
4.53532 0.291187 0.291187
4.53804 0.316626 1.46196
4.5373 0.31469 3
4.53804 0.316626 4.53804
4.53532 0.291187 5.70881
4.53804 1.46196 0.316626
4.54058 1.45942 1.45942
4.53968 1.46032 3
4.54058 1.45942 4.54058
4.53804 1.46196 5.68337
4.5373 3 0.31469
4.53968 3 1.46032
4.53879 3 3
4.53968 3 4.53968
4.5373 3 5.68531
4.53804 4.53804 0.316626
4.54058 4.54058 1.45942
4.53968 4.53968 3
4.54058 4.54058 4.54058
4.53804 4.53804 5.68337
4.53532 5.70881 0.291187
4.53804 5.68337 1.46196
4.5373 5.68531 3
4.53804 5.68337 4.53804
4.53532 5.70881 5.70881
5.73116 0.268841 0.268841
5.70881 0.291187 1.46468
5.71057 0.289428 3
5.70881 0.291187 4.53532
5.73116 0.268841 5.73116
5.70881 1.46468 0.291187
5.68337 1.46196 1.46196
5.68531 1.4627 3
5.68337 1.46196 4.53804
5.70881 1.46468 5.70881
5.71057 3 0.289428
5.68531 3 1.4627
5.68715 3 3
5.68531 3 4.5373
5.71057 3 5.71057
5.70881 4.53532 0.291187
5.68337 4.53804 1.46196
5.68531 4.5373 3
5.68337 4.53804 4.53804
5.70881 4.53532 5.70881
5.73116 5.73116 0.268841
5.70881 5.70881 1.46468
5.71057 5.71057 3
5.70881 5.70881 4.53532
5.73116 5.73116 5.73116

VERTICES 125 250
1 0
1 1
1 2
1 3
1 4
1 5
1 6
1 7
1 8
1 9
1 10
1 11
1 12
1 13
1 14
1 15
1 16
1 17
1 18
1 19
1 20
1 21
1 22
1 23
1 24
1 25
1 26
1 27
1 28
1 29
1 30
1 31
1 32
1 33
1 34
1 35
1 36
1 37
1 38
1 39
1 40
1 41
1 42
1 43
1 44
1 45
1 46
1 47
1 48
1 49
1 50
1 51
1 52
1 53
1 54
1 55
1 56
1 57
1 58
1 59
1 60
1 61
1 62
1 63
1 64
1 65
1 66
1 67
1 68
1 69
1 70
1 71
1 72
1 73
1 74
1 75
1 76
1 77
1 78
1 79
1 80
1 81
1 82
1 83
1 84
1 85
1 86
1 87
1 88
1 89
1 90
1 91
1 92
1 93
1 94
1 95
1 96
1 97
1 98
1 99
1 100
1 101
1 102
1 103
1 104
1 105
1 106
1 107
1 108
1 109
1 110
1 111
1 112
1 113
1 114
1 115
1 116
1 117
1 118
1 119
1 120
1 121
1 122
1 123
1 124

POINT_DATA 125
SCALARS speed double 1
LOOKUP_TABLE default
1.96492
1.7502
1.68968
1.7502
1.96492
1.7502
1.37848
1.31217
1.37848
1.7502
1.68968
1.31217
1.24956
1.31217
1.68968
1.7502
1.37848
1.31217
1.37848
1.7502
1.96492
1.7502
1.68968
1.7502
1.96492
1.7502
1.37848
1.31217
1.37848
1.7502
1.37848
0.557724
0.439166
0.557724
1.37848
1.31217
0.439166
0.29948
0.439166
1.31217
1.37848
0.557724
0.439166
0.557724
1.37848
1.7502
1.37848
1.31217
1.37848
1.7502
1.68968
1.31217
1.24956
1.31217
1.68968
1.31217
0.439166
0.29948
0.439166
1.31217
1.24956
0.29948
1.60089e-14
0.29948
1.24956
1.31217
0.439166
0.29948
0.439166
1.31217
1.68968
1.31217
1.24956
1.31217
1.68968
1.7502
1.37848
1.31217
1.37848
1.7502
1.37848
0.557724
0.439166
0.557724
1.37848
1.31217
0.439166
0.29948
0.439166
1.31217
1.37848
0.557724
0.439166
0.557724
1.37848
1.7502
1.37848
1.31217
1.37848
1.7502
1.96492
1.7502
1.68968
1.7502
1.96492
1.7502
1.37848
1.31217
1.37848
1.7502
1.68968
1.31217
1.24956
1.31217
1.68968
1.7502
1.37848
1.31217
1.37848
1.7502
1.96492
1.7502
1.68968
1.7502
1.96492

SCALARS mass double 1
LOOKUP_TABLE default
1
1
1
1
1
1
1
1
1
1
1
1
1
1
1
1
1
1
1
1
1
1
1
1
1
1
1
1
1
1
1
1
1
1
1
1
1
1
1
1
1
1
1
1
1
1
1
1
1
1
1
1
1
1
1
1
1
1
1
1
1
1
1
1
1
1
1
1
1
1
1
1
1
1
1
1
1
1
1
1
1
1
1
1
1
1
1
1
1
1
1
1
1
1
1
1
1
1
1
1
1
1
1
1
1
1
1
1
1
1
1
1
1
1
1
1
1
1
1
1
1
1
1
1
1
