# vtk DataFile Version 3.0
Molecular dynamics particles
ASCII
DATASET POLYDATA
POINTS 125 double
0.403631 0.403631 0.403631
0.436527 0.436527 1.6772
0.422756 0.422756 3
0.436527 0.436527 4.3228
0.403631 0.403631 5.59637
0.436527 1.6772 0.436527
0.485735 1.72821 1.72821
0.465618 1.71259 3
0.485735 1.72821 4.27179
0.436527 1.6772 5.56347
0.422756 3 0.422756
0.465618 3 1.71259
0.449359 3 3
0.465618 3 4.28741
0.422756 3 5.57724
0.436527 4.3228 0.436527
0.485735 4.27179 1.72821
0.465618 4.28741 3
0.485735 4.27179 4.27179
0.436527 4.3228 5.56347
0.403631 5.59637 0.403631
0.436527 5.56347 1.6772
0.422756 5.57724 3
0.436527 5.56347 4.3228
0.403631 5.59637 5.59637
1.6772 0.436527 0.436527
1.72821 0.485735 1.72821
1.71259 0.465618 3
1.72821 0.485735 4.27179
1.6772 0.436527 5.56347
1.72821 1.72821 0.485735
1.79093 1.79093 1.79093
1.77202 1.77202 3
1.79093 1.79093 4.20907
1.72821 1.72821 5.51426
1.71259 3 0.465618
1.77202 3 1.77202
1.7554 3 3
1.77202 3 4.22798
1.71259 3 5.53438
1.72821 4.27179 0.485735
1.79093 4.20907 1.79093
1.77202 4.22798 3
1.79093 4.20907 4.20907
1.72821 4.27179 5.51426
1.6772 5.56347 0.436527
1.72821 5.51426 1.72821
1.71259 5.53438 3
1.72821 5.51426 4.27179
1.6772 5.56347 5.56347
3 0.422756 0.422756
3 0.465618 1.71259
3 0.449359 3
3 0.465618 4.28741
3 0.422756 5.57724
3 1.71259 0.465618
3 1.77202 1.77202
3 1.7554 3
3 1.77202 4.22798
3 1.71259 5.53438
3 3 0.449359
3 3 1.7554
3 3 3
3 3 4.2446
3 3 5.55064
3 4.28741 0.465618
3 4.22798 1.77202
3 4.2446 3
3 4.22798 4.22798
3 4.28741 5.53438
3 5.57724 0.422756
3 5.53438 1.71259
3 5.55064 3
3 5.53438 4.28741
3 5.57724 5.57724
4.3228 0.436527 0.436527
4.27179 0.485735 1.72821
4.28741 0.465618 3
4.27179 0.485735 4.27179
4.3228 0.436527 5.56347
4.27179 1.72821 0.485735
4.20907 1.79093 1.79093
4.22798 1.77202 3
4.20907 1.79093 4.20907
4.27179 1.72821 5.51426
4.28741 3 0.465618
4.22798 3 1.77202
4.2446 3 3
4.22798 3 4.22798
4.28741 3 5.53438
4.27179 4.27179 0.485735
4.20907 4.20907 1.79093
4.22798 4.22798 3
4.20907 4.20907 4.20907
4.27179 4.27179 5.51426
4.3228 5.56347 0.436527
4.27179 5.51426 1.72821
4.28741 5.53438 3
4.27179 5.51426 4.27179
4.3228 5.56347 5.56347
5.59637 0.403631 0.403631
5.56347 0.436527 1.6772
5.57724 0.422756 3
5.56347 0.436527 4.3228
5.59637 0.403631 5.59637
5.56347 1.6772 0.436527
5.51426 1.72821 1.72821
5.53438 1.71259 3
5.51426 1.72821 4.27179
5.56347 1.6772 5.56347
5.57724 3 0.422756
5.53438 3 1.71259
5.55064 3 3
5.53438 3 4.28741
5.57724 3 5.57724
5.56347 4.3228 0.436527
5.51426 4.27179 1.72821
5.53438 4.28741 3
5.51426 4.27179 4.27179
5.56347 4.3228 5.56347
5.59637 5.59637 0.403631
5.56347 5.56347 1.6772
5.57724 5.57724 3
5.56347 5.56347 4.3228
5.59637 5.59637 5.59637

VERTICES 125 250
1 0
1 1
1 2
1 3
1 4
1 5
1 6
1 7
1 8
1 9
1 10
1 11
1 12
1 13
1 14
1 15
1 16
1 17
1 18
1 19
1 20
1 21
1 22
1 23
1 24
1 25
1 26
1 27
1 28
1 29
1 30
1 31
1 32
1 33
1 34
1 35
1 36
1 37
1 38
1 39
1 40
1 41
1 42
1 43
1 44
1 45
1 46
1 47
1 48
1 49
1 50
1 51
1 52
1 53
1 54
1 55
1 56
1 57
1 58
1 59
1 60
1 61
1 62
1 63
1 64
1 65
1 66
1 67
1 68
1 69
1 70
1 71
1 72
1 73
1 74
1 75
1 76
1 77
1 78
1 79
1 80
1 81
1 82
1 83
1 84
1 85
1 86
1 87
1 88
1 89
1 90
1 91
1 92
1 93
1 94
1 95
1 96
1 97
1 98
1 99
1 100
1 101
1 102
1 103
1 104
1 105
1 106
1 107
1 108
1 109
1 110
1 111
1 112
1 113
1 114
1 115
1 116
1 117
1 118
1 119
1 120
1 121
1 122
1 123
1 124

POINT_DATA 125
SCALARS speed double 1
LOOKUP_TABLE default
0.0413492
1.35632
0.18017
1.35632
0.0413492
1.35632
2.08721
1.43112
2.08721
1.35632
0.18017
1.43112
0.313929
1.43112
0.18017
1.35632
2.08721
1.43112
2.08721
1.35632
0.0413492
1.35632
0.18017
1.35632
0.0413492
1.35632
2.08721
1.43112
2.08721
1.35632
2.08721
2.73625
2.14393
2.73625
2.08721
1.43112
2.14393
1.45902
2.14393
1.43112
2.08721
2.73625
2.14393
2.73625
2.08721
1.35632
2.08721
1.43112
2.08721
1.35632
0.18017
1.43112
0.313929
1.43112
0.18017
1.43112
2.14393
1.45902
2.14393
1.43112
0.313929
1.45902
4.52055e-14
1.45902
0.313929
1.43112
2.14393
1.45902
2.14393
1.43112
0.18017
1.43112
0.313929
1.43112
0.18017
1.35632
2.08721
1.43112
2.08721
1.35632
2.08721
2.73625
2.14393
2.73625
2.08721
1.43112
2.14393
1.45902
2.14393
1.43112
2.08721
2.73625
2.14393
2.73625
2.08721
1.35632
2.08721
1.43112
2.08721
1.35632
0.0413492
1.35632
0.18017
1.35632
0.0413492
1.35632
2.08721
1.43112
2.08721
1.35632
0.18017
1.43112
0.313929
1.43112
0.18017
1.35632
2.08721
1.43112
2.08721
1.35632
0.0413492
1.35632
0.18017
1.35632
0.0413492

SCALARS mass double 1
LOOKUP_TABLE default
1
1
1
1
1
1
1
1
1
1
1
1
1
1
1
1
1
1
1
1
1
1
1
1
1
1
1
1
1
1
1
1
1
1
1
1
1
1
1
1
1
1
1
1
1
1
1
1
1
1
1
1
1
1
1
1
1
1
1
1
1
1
1
1
1
1
1
1
1
1
1
1
1
1
1
1
1
1
1
1
1
1
1
1
1
1
1
1
1
1
1
1
1
1
1
1
1
1
1
1
1
1
1
1
1
1
1
1
1
1
1
1
1
1
1
1
1
1
1
1
1
1
1
1
1
