# vtk DataFile Version 3.0
Molecular dynamics particles
ASCII
DATASET POLYDATA
POINTS 125 double
0.163204 0.163204 0.163204
0.176827 0.176827 1.48793
0.176566 0.176566 3
0.176827 0.176827 4.51207
0.163204 0.163204 5.8368
0.176827 1.48793 0.176827
0.192675 1.48712 1.48712
0.192446 1.48729 3
0.192675 1.48712 4.51288
0.176827 1.48793 5.82317
0.176566 3 0.176566
0.192446 3 1.48729
0.192245 3 3
0.192446 3 4.51271
0.176566 3 5.82343
0.176827 4.51207 0.176827
0.192675 4.51288 1.48712
0.192446 4.51271 3
0.192675 4.51288 4.51288
0.176827 4.51207 5.82317
0.163204 5.8368 0.163204
0.176827 5.82317 1.48793
0.176566 5.82343 3
0.176827 5.82317 4.51207
0.163204 5.8368 5.8368
1.48793 0.176827 0.176827
1.48712 0.192675 1.48712
1.48729 0.192446 3
1.48712 0.192675 4.51288
1.48793 0.176827 5.82317
1.48712 1.48712 0.192675
1.48629 1.48629 1.48629
1.48651 1.48651 3
1.48629 1.48629 4.51371
1.48712 1.48712 5.80732
1.48729 3 0.192446
1.48651 3 1.48651
1.48674 3 3
1.48651 3 4.51349
1.48729 3 5.80755
1.48712 4.51288 0.192675
1.48629 4.51371 1.48629
1.48651 4.51349 3
1.48629 4.51371 4.51371
1.48712 4.51288 5.80732
1.48793 5.82317 0.176827
1.48712 5.80732 1.48712
1.48729 5.80755 3
1.48712 5.80732 4.51288
1.48793 5.82317 5.82317
3 0.176566 0.176566
3 0.192446 1.48729
3 0.192245 3
3 0.192446 4.51271
3 0.176566 5.82343
3 1.48729 0.192446
3 1.48651 1.48651
3 1.48674 3
3 1.48651 4.51349
3 1.48729 5.80755
3 3 0.192245
3 3 1.48674
3 3 3
3 3 4.51326
3 3 5.80776
3 4.51271 0.192446
3 4.51349 1.48651
3 4.51326 3
3 4.51349 4.51349
3 4.51271 5.80755
3 5.82343 0.176566
3 5.80755 1.48729
3 5.80776 3
3 5.80755 4.51271
3 5.82343 5.82343
4.51207 0.176827 0.176827
4.51288 0.192675 1.48712
4.51271 0.192446 3
4.51288 0.192675 4.51288
4.51207 0.176827 5.82317
4.51288 1.48712 0.192675
4.51371 1.48629 1.48629
4.51349 1.48651 3
4.51371 1.48629 4.51371
4.51288 1.48712 5.80732
4.51271 3 0.192446
4.51349 3 1.48651
4.51326 3 3
4.51349 3 4.51349
4.51271 3 5.80755
4.51288 4.51288 0.192675
4.51371 4.51371 1.48629
4.51349 4.51349 3
4.51371 4.51371 4.51371
4.51288 4.51288 5.80732
4.51207 5.82317 0.176827
4.51288 5.80732 1.48712
4.51271 5.80755 3
4.51288 5.80732 4.51288
4.51207 5.82317 5.82317
5.8368 0.163204 0.163204
5.82317 0.176827 1.48793
5.82343 0.176566 3
5.82317 0.176827 4.51207
5.8368 0.163204 5.8368
5.82317 1.48793 0.176827
5.80732 1.48712 1.48712
5.80755 1.48729 3
5.80732 1.48712 4.51288
5.82317 1.48793 5.82317
5.82343 3 0.176566
5.80755 3 1.48729
5.80776 3 3
5.80755 3 4.51271
5.82343 3 5.82343
5.82317 4.51207 0.176827
5.80732 4.51288 1.48712
5.80755 4.51271 3
5.80732 4.51288 4.51288
5.82317 4.51207 5.82317
5.8368 5.8368 0.163204
5.82317 5.82317 1.48793
5.82343 5.82343 3
5.82317 5.82317 4.51207
5.8368 5.8368 5.8368

VERTICES 125 250
1 0
1 1
1 2
1 3
1 4
1 5
1 6
1 7
1 8
1 9
1 10
1 11
1 12
1 13
1 14
1 15
1 16
1 17
1 18
1 19
1 20
1 21
1 22
1 23
1 24
1 25
1 26
1 27
1 28
1 29
1 30
1 31
1 32
1 33
1 34
1 35
1 36
1 37
1 38
1 39
1 40
1 41
1 42
1 43
1 44
1 45
1 46
1 47
1 48
1 49
1 50
1 51
1 52
1 53
1 54
1 55
1 56
1 57
1 58
1 59
1 60
1 61
1 62
1 63
1 64
1 65
1 66
1 67
1 68
1 69
1 70
1 71
1 72
1 73
1 74
1 75
1 76
1 77
1 78
1 79
1 80
1 81
1 82
1 83
1 84
1 85
1 86
1 87
1 88
1 89
1 90
1 91
1 92
1 93
1 94
1 95
1 96
1 97
1 98
1 99
1 100
1 101
1 102
1 103
1 104
1 105
1 106
1 107
1 108
1 109
1 110
1 111
1 112
1 113
1 114
1 115
1 116
1 117
1 118
1 119
1 120
1 121
1 122
1 123
1 124

POINT_DATA 125
SCALARS speed double 1
LOOKUP_TABLE default
1.38327
1.23297
1.21675
1.23297
1.38327
1.23297
0.967001
0.948616
0.967001
1.23297
1.21675
0.948616
0.930768
0.948616
1.21675
1.23297
0.967001
0.948616
0.967001
1.23297
1.38327
1.23297
1.21675
1.23297
1.38327
1.23297
0.967001
0.948616
0.967001
1.23297
0.967001
0.276227
0.222089
0.276227
0.967001
0.948616
0.222089
0.154581
0.222089
0.948616
0.967001
0.276227
0.222089
0.276227
0.967001
1.23297
0.967001
0.948616
0.967001
1.23297
1.21675
0.948616
0.930768
0.948616
1.21675
0.948616
0.222089
0.154581
0.222089
0.948616
0.930768
0.154581
1.33893e-14
0.154581
0.930768
0.948616
0.222089
0.154581
0.222089
0.948616
1.21675
0.948616
0.930768
0.948616
1.21675
1.23297
0.967001
0.948616
0.967001
1.23297
0.967001
0.276227
0.222089
0.276227
0.967001
0.948616
0.222089
0.154581
0.222089
0.948616
0.967001
0.276227
0.222089
0.276227
0.967001
1.23297
0.967001
0.948616
0.967001
1.23297
1.38327
1.23297
1.21675
1.23297
1.38327
1.23297
0.967001
0.948616
0.967001
1.23297
1.21675
0.948616
0.930768
0.948616
1.21675
1.23297
0.967001
0.948616
0.967001
1.23297
1.38327
1.23297
1.21675
1.23297
1.38327

SCALARS mass double 1
LOOKUP_TABLE default
1
1
1
1
1
1
1
1
1
1
1
1
1
1
1
1
1
1
1
1
1
1
1
1
1
1
1
1
1
1
1
1
1
1
1
1
1
1
1
1
1
1
1
1
1
1
1
1
1
1
1
1
1
1
1
1
1
1
1
1
1
1
1
1
1
1
1
1
1
1
1
1
1
1
1
1
1
1
1
1
1
1
1
1
1
1
1
1
1
1
1
1
1
1
1
1
1
1
1
1
1
1
1
1
1
1
1
1
1
1
1
1
1
1
1
1
1
1
1
1
1
1
1
1
1
