# vtk DataFile Version 3.0
Molecular dynamics particles
ASCII
DATASET POLYDATA
POINTS 125 double
0.0311081 0.0311081 0.0311081
0.0336497 0.0336497 1.50007
0.0337309 0.0337309 3
0.0336497 0.0336497 4.49993
0.0311081 0.0311081 5.96889
0.0336497 1.50007 0.0336497
0.036632 1.50019 1.50019
0.0367417 1.50021 3
0.036632 1.50019 4.49981
0.0336497 1.50007 5.96635
0.0337309 3 0.0337309
0.0367417 3 1.50021
0.0368568 3 3
0.0367417 3 4.49979
0.0337309 3 5.96627
0.0336497 4.49993 0.0336497
0.036632 4.49981 1.50019
0.0367417 4.49979 3
0.036632 4.49981 4.49981
0.0336497 4.49993 5.96635
0.0311081 5.96889 0.0311081
0.0336497 5.96635 1.50007
0.0337309 5.96627 3
0.0336497 5.96635 4.49993
0.0311081 5.96889 5.96889
1.50007 0.0336497 0.0336497
1.50019 0.036632 1.50019
1.50021 0.0367417 3
1.50019 0.036632 4.49981
1.50007 0.0336497 5.96635
1.50019 1.50019 0.036632
1.50035 1.50035 1.50035
1.50038 1.50038 3
1.50035 1.50035 4.49965
1.50019 1.50019 5.96337
1.50021 3 0.0367417
1.50038 3 1.50038
1.50042 3 3
1.50038 3 4.49962
1.50021 3 5.96326
1.50019 4.49981 0.036632
1.50035 4.49965 1.50035
1.50038 4.49962 3
1.50035 4.49965 4.49965
1.50019 4.49981 5.96337
1.50007 5.96635 0.0336497
1.50019 5.96337 1.50019
1.50021 5.96326 3
1.50019 5.96337 4.49981
1.50007 5.96635 5.96635
3 0.0337309 0.0337309
3 0.0367417 1.50021
3 0.0368568 3
3 0.0367417 4.49979
3 0.0337309 5.96627
3 1.50021 0.0367417
3 1.50038 1.50038
3 1.50042 3
3 1.50038 4.49962
3 1.50021 5.96326
3 3 0.0368568
3 3 1.50042
3 3 3
3 3 4.49958
3 3 5.96314
3 4.49979 0.0367417
3 4.49962 1.50038
3 4.49958 3
3 4.49962 4.49962
3 4.49979 5.96326
3 5.96627 0.0337309
3 5.96326 1.50021
3 5.96314 3
3 5.96326 4.49979
3 5.96627 5.96627
4.49993 0.0336497 0.0336497
4.49981 0.036632 1.50019
4.49979 0.0367417 3
4.49981 0.036632 4.49981
4.49993 0.0336497 5.96635
4.49981 1.50019 0.036632
4.49965 1.50035 1.50035
4.49962 1.50038 3
4.49965 1.50035 4.49965
4.49981 1.50019 5.96337
4.49979 3 0.0367417
4.49962 3 1.50038
4.49958 3 3
4.49962 3 4.49962
4.49979 3 5.96326
4.49981 4.49981 0.036632
4.49965 4.49965 1.50035
4.49962 4.49962 3
4.49965 4.49965 4.49965
4.49981 4.49981 5.96337
4.49993 5.96635 0.0336497
4.49981 5.96337 1.50019
4.49979 5.96326 3
4.49981 5.96337 4.49981
4.49993 5.96635 5.96635
5.96889 0.0311081 0.0311081
5.96635 0.0336497 1.50007
5.96627 0.0337309 3
5.96635 0.0336497 4.49993
5.96889 0.0311081 5.96889
5.96635 1.50007 0.0336497
5.96337 1.50019 1.50019
5.96326 1.50021 3
5.96337 1.50019 4.49981
5.96635 1.50007 5.96635
5.96627 3 0.0337309
5.96326 3 1.50021
5.96314 3 3
5.96326 3 4.49979
5.96627 3 5.96627
5.96635 4.49993 0.0336497
5.96337 4.49981 1.50019
5.96326 4.49979 3
5.96337 4.49981 4.49981
5.96635 4.49993 5.96635
5.96889 5.96889 0.0311081
5.96635 5.96635 1.50007
5.96627 5.96627 3
5.96635 5.96635 4.49993
5.96889 5.96889 5.96889

VERTICES 125 250
1 0
1 1
1 2
1 3
1 4
1 5
1 6
1 7
1 8
1 9
1 10
1 11
1 12
1 13
1 14
1 15
1 16
1 17
1 18
1 19
1 20
1 21
1 22
1 23
1 24
1 25
1 26
1 27
1 28
1 29
1 30
1 31
1 32
1 33
1 34
1 35
1 36
1 37
1 38
1 39
1 40
1 41
1 42
1 43
1 44
1 45
1 46
1 47
1 48
1 49
1 50
1 51
1 52
1 53
1 54
1 55
1 56
1 57
1 58
1 59
1 60
1 61
1 62
1 63
1 64
1 65
1 66
1 67
1 68
1 69
1 70
1 71
1 72
1 73
1 74
1 75
1 76
1 77
1 78
1 79
1 80
1 81
1 82
1 83
1 84
1 85
1 86
1 87
1 88
1 89
1 90
1 91
1 92
1 93
1 94
1 95
1 96
1 97
1 98
1 99
1 100
1 101
1 102
1 103
1 104
1 105
1 106
1 107
1 108
1 109
1 110
1 111
1 112
1 113
1 114
1 115
1 116
1 117
1 118
1 119
1 120
1 121
1 122
1 123
1 124

POINT_DATA 125
SCALARS speed double 1
LOOKUP_TABLE default
0.523925
0.462934
0.46368
0.462934
0.523925
0.462934
0.356476
0.35723
0.356476
0.462934
0.46368
0.35723
0.358036
0.35723
0.46368
0.462934
0.356476
0.35723
0.356476
0.462934
0.523925
0.462934
0.46368
0.462934
0.523925
0.462934
0.356476
0.35723
0.356476
0.462934
0.356476
0.00573609
0.0042827
0.00573609
0.356476
0.35723
0.0042827
0.00272393
0.0042827
0.35723
0.356476
0.00573609
0.0042827
0.00573609
0.356476
0.462934
0.356476
0.35723
0.356476
0.462934
0.46368
0.35723
0.358036
0.35723
0.46368
0.35723
0.0042827
0.00272393
0.0042827
0.35723
0.358036
0.00272393
6.26493e-16
0.00272393
0.358036
0.35723
0.0042827
0.00272393
0.0042827
0.35723
0.46368
0.35723
0.358036
0.35723
0.46368
0.462934
0.356476
0.35723
0.356476
0.462934
0.356476
0.00573609
0.0042827
0.00573609
0.356476
0.35723
0.0042827
0.00272393
0.0042827
0.35723
0.356476
0.00573609
0.0042827
0.00573609
0.356476
0.462934
0.356476
0.35723
0.356476
0.462934
0.523925
0.462934
0.46368
0.462934
0.523925
0.462934
0.356476
0.35723
0.356476
0.462934
0.46368
0.35723
0.358036
0.35723
0.46368
0.462934
0.356476
0.35723
0.356476
0.462934
0.523925
0.462934
0.46368
0.462934
0.523925

SCALARS mass double 1
LOOKUP_TABLE default
1
1
1
1
1
1
1
1
1
1
1
1
1
1
1
1
1
1
1
1
1
1
1
1
1
1
1
1
1
1
1
1
1
1
1
1
1
1
1
1
1
1
1
1
1
1
1
1
1
1
1
1
1
1
1
1
1
1
1
1
1
1
1
1
1
1
1
1
1
1
1
1
1
1
1
1
1
1
1
1
1
1
1
1
1
1
1
1
1
1
1
1
1
1
1
1
1
1
1
1
1
1
1
1
1
1
1
1
1
1
1
1
1
1
1
1
1
1
1
1
1
1
1
1
1
