# vtk DataFile Version 3.0
Molecular dynamics particles
ASCII
DATASET POLYDATA
POINTS 125 double
0.432483 0.432483 0.432483
0.441132 0.441132 1.48942
0.435512 0.435512 3
0.441132 0.441132 4.51058
0.432483 0.432483 5.56752
0.441132 1.48942 0.441132
0.456074 1.52447 1.52447
0.448266 1.51861 3
0.456074 1.52447 4.47553
0.441132 1.48942 5.55887
0.435512 3 0.435512
0.448266 3 1.51861
0.441763 3 3
0.448266 3 4.48139
0.435512 3 5.56449
0.441132 4.51058 0.441132
0.456074 4.47553 1.52447
0.448266 4.48139 3
0.456074 4.47553 4.47553
0.441132 4.51058 5.55887
0.432483 5.56752 0.432483
0.441132 5.55887 1.48942
0.435512 5.56449 3
0.441132 5.55887 4.51058
0.432483 5.56752 5.56752
1.48942 0.441132 0.441132
1.52447 0.456074 1.52447
1.51861 0.448266 3
1.52447 0.456074 4.47553
1.48942 0.441132 5.55887
1.52447 1.52447 0.456074
1.56833 1.56833 1.56833
1.56011 1.56011 3
1.56833 1.56833 4.43167
1.52447 1.52447 5.54393
1.51861 3 0.448266
1.56011 3 1.56011
1.55304 3 3
1.56011 3 4.43989
1.51861 3 5.55173
1.52447 4.47553 0.456074
1.56833 4.43167 1.56833
1.56011 4.43989 3
1.56833 4.43167 4.43167
1.52447 4.47553 5.54393
1.48942 5.55887 0.441132
1.52447 5.54393 1.52447
1.51861 5.55173 3
1.52447 5.54393 4.47553
1.48942 5.55887 5.55887
3 0.435512 0.435512
3 0.448266 1.51861
3 0.441763 3
3 0.448266 4.48139
3 0.435512 5.56449
3 1.51861 0.448266
3 1.56011 1.56011
3 1.55304 3
3 1.56011 4.43989
3 1.51861 5.55173
3 3 0.441763
3 3 1.55304
3 3 3
3 3 4.44696
3 3 5.55824
3 4.48139 0.448266
3 4.43989 1.56011
3 4.44696 3
3 4.43989 4.43989
3 4.48139 5.55173
3 5.56449 0.435512
3 5.55173 1.51861
3 5.55824 3
3 5.55173 4.48139
3 5.56449 5.56449
4.51058 0.441132 0.441132
4.47553 0.456074 1.52447
4.48139 0.448266 3
4.47553 0.456074 4.47553
4.51058 0.441132 5.55887
4.47553 1.52447 0.456074
4.43167 1.56833 1.56833
4.43989 1.56011 3
4.43167 1.56833 4.43167
4.47553 1.52447 5.54393
4.48139 3 0.448266
4.43989 3 1.56011
4.44696 3 3
4.43989 3 4.43989
4.48139 3 5.55173
4.47553 4.47553 0.456074
4.43167 4.43167 1.56833
4.43989 4.43989 3
4.43167 4.43167 4.43167
4.47553 4.47553 5.54393
4.51058 5.55887 0.441132
4.47553 5.54393 1.52447
4.48139 5.55173 3
4.47553 5.54393 4.47553
4.51058 5.55887 5.55887
5.56752 0.432483 0.432483
5.55887 0.441132 1.48942
5.56449 0.435512 3
5.55887 0.441132 4.51058
5.56752 0.432483 5.56752
5.55887 1.48942 0.441132
5.54393 1.52447 1.52447
5.55173 1.51861 3
5.54393 1.52447 4.47553
5.55887 1.48942 5.55887
5.56449 3 0.435512
5.55173 3 1.51861
5.55824 3 3
5.55173 3 4.48139
5.56449 3 5.56449
5.55887 4.51058 0.441132
5.54393 4.47553 1.52447
5.55173 4.48139 3
5.54393 4.47553 4.47553
5.55887 4.51058 5.55887
5.56752 5.56752 0.432483
5.55887 5.55887 1.48942
5.56449 5.56449 3
5.55887 5.55887 4.51058
5.56752 5.56752 5.56752

VERTICES 125 250
1 0
1 1
1 2
1 3
1 4
1 5
1 6
1 7
1 8
1 9
1 10
1 11
1 12
1 13
1 14
1 15
1 16
1 17
1 18
1 19
1 20
1 21
1 22
1 23
1 24
1 25
1 26
1 27
1 28
1 29
1 30
1 31
1 32
1 33
1 34
1 35
1 36
1 37
1 38
1 39
1 40
1 41
1 42
1 43
1 44
1 45
1 46
1 47
1 48
1 49
1 50
1 51
1 52
1 53
1 54
1 55
1 56
1 57
1 58
1 59
1 60
1 61
1 62
1 63
1 64
1 65
1 66
1 67
1 68
1 69
1 70
1 71
1 72
1 73
1 74
1 75
1 76
1 77
1 78
1 79
1 80
1 81
1 82
1 83
1 84
1 85
1 86
1 87
1 88
1 89
1 90
1 91
1 92
1 93
1 94
1 95
1 96
1 97
1 98
1 99
1 100
1 101
1 102
1 103
1 104
1 105
1 106
1 107
1 108
1 109
1 110
1 111
1 112
1 113
1 114
1 115
1 116
1 117
1 118
1 119
1 120
1 121
1 122
1 123
1 124

POINT_DATA 125
SCALARS speed double 1
LOOKUP_TABLE default
0.400631
1.26535
0.302692
1.26535
0.400631
1.26535
2.02309
1.34377
2.02309
1.26535
0.302692
1.34377
0.14466
1.34377
0.302692
1.26535
2.02309
1.34377
2.02309
1.26535
0.400631
1.26535
0.302692
1.26535
0.400631
1.26535
2.02309
1.34377
2.02309
1.26535
2.02309
2.77753
2.13759
2.77753
2.02309
1.34377
2.13759
1.42795
2.13759
1.34377
2.02309
2.77753
2.13759
2.77753
2.02309
1.26535
2.02309
1.34377
2.02309
1.26535
0.302692
1.34377
0.14466
1.34377
0.302692
1.34377
2.13759
1.42795
2.13759
1.34377
0.14466
1.42795
2.6112e-15
1.42795
0.14466
1.34377
2.13759
1.42795
2.13759
1.34377
0.302692
1.34377
0.14466
1.34377
0.302692
1.26535
2.02309
1.34377
2.02309
1.26535
2.02309
2.77753
2.13759
2.77753
2.02309
1.34377
2.13759
1.42795
2.13759
1.34377
2.02309
2.77753
2.13759
2.77753
2.02309
1.26535
2.02309
1.34377
2.02309
1.26535
0.400631
1.26535
0.302692
1.26535
0.400631
1.26535
2.02309
1.34377
2.02309
1.26535
0.302692
1.34377
0.14466
1.34377
0.302692
1.26535
2.02309
1.34377
2.02309
1.26535
0.400631
1.26535
0.302692
1.26535
0.400631

SCALARS mass double 1
LOOKUP_TABLE default
1
1
1
1
1
1
1
1
1
1
1
1
1
1
1
1
1
1
1
1
1
1
1
1
1
1
1
1
1
1
1
1
1
1
1
1
1
1
1
1
1
1
1
1
1
1
1
1
1
1
1
1
1
1
1
1
1
1
1
1
1
1
1
1
1
1
1
1
1
1
1
1
1
1
1
1
1
1
1
1
1
1
1
1
1
1
1
1
1
1
1
1
1
1
1
1
1
1
1
1
1
1
1
1
1
1
1
1
1
1
1
1
1
1
1
1
1
1
1
1
1
1
1
1
1
