# vtk DataFile Version 3.0
Molecular dynamics particles
ASCII
DATASET POLYDATA
POINTS 125 double
0.0845079 0.0845079 0.0845079
0.0914741 0.0914741 1.49758
0.0915679 0.0915679 3
0.0914741 0.0914741 4.50242
0.0845079 0.0845079 5.91549
0.0914741 1.49758 0.0914741
0.099625 1.49761 1.49761
0.0997748 1.49767 3
0.099625 1.49761 4.50239
0.0914741 1.49758 5.90853
0.0915679 3 0.0915679
0.0997748 3 1.49767
0.0999375 3 3
0.0997748 3 4.50233
0.0915679 3 5.90843
0.0914741 4.50242 0.0914741
0.099625 4.50239 1.49761
0.0997748 4.50233 3
0.099625 4.50239 4.50239
0.0914741 4.50242 5.90853
0.0845079 5.91549 0.0845079
0.0914741 5.90853 1.49758
0.0915679 5.90843 3
0.0914741 5.90853 4.50242
0.0845079 5.91549 5.91549
1.49758 0.0914741 0.0914741
1.49761 0.099625 1.49761
1.49767 0.0997748 3
1.49761 0.099625 4.50239
1.49758 0.0914741 5.90853
1.49761 1.49761 0.099625
1.4977 1.4977 1.4977
1.49778 1.49778 3
1.4977 1.4977 4.5023
1.49761 1.49761 5.90038
1.49767 3 0.0997748
1.49778 3 1.49778
1.49787 3 3
1.49778 3 4.50222
1.49767 3 5.90023
1.49761 4.50239 0.099625
1.4977 4.5023 1.4977
1.49778 4.50222 3
1.4977 4.5023 4.5023
1.49761 4.50239 5.90038
1.49758 5.90853 0.0914741
1.49761 5.90038 1.49761
1.49767 5.90023 3
1.49761 5.90038 4.50239
1.49758 5.90853 5.90853
3 0.0915679 0.0915679
3 0.0997748 1.49767
3 0.0999375 3
3 0.0997748 4.50233
3 0.0915679 5.90843
3 1.49767 0.0997748
3 1.49778 1.49778
3 1.49787 3
3 1.49778 4.50222
3 1.49767 5.90023
3 3 0.0999375
3 3 1.49787
3 3 3
3 3 4.50213
3 3 5.90006
3 4.50233 0.0997748
3 4.50222 1.49778
3 4.50213 3
3 4.50222 4.50222
3 4.50233 5.90023
3 5.90843 0.0915679
3 5.90023 1.49767
3 5.90006 3
3 5.90023 4.50233
3 5.90843 5.90843
4.50242 0.0914741 0.0914741
4.50239 0.099625 1.49761
4.50233 0.0997748 3
4.50239 0.099625 4.50239
4.50242 0.0914741 5.90853
4.50239 1.49761 0.099625
4.5023 1.4977 1.4977
4.50222 1.49778 3
4.5023 1.4977 4.5023
4.50239 1.49761 5.90038
4.50233 3 0.0997748
4.50222 3 1.49778
4.50213 3 3
4.50222 3 4.50222
4.50233 3 5.90023
4.50239 4.50239 0.099625
4.5023 4.5023 1.4977
4.50222 4.50222 3
4.5023 4.5023 4.5023
4.50239 4.50239 5.90038
4.50242 5.90853 0.0914741
4.50239 5.90038 1.49761
4.50233 5.90023 3
4.50239 5.90038 4.50239
4.50242 5.90853 5.90853
5.91549 0.0845079 0.0845079
5.90853 0.0914741 1.49758
5.90843 0.0915679 3
5.90853 0.0914741 4.50242
5.91549 0.0845079 5.91549
5.90853 1.49758 0.0914741
5.90038 1.49761 1.49761
5.90023 1.49767 3
5.90038 1.49761 4.50239
5.90853 1.49758 5.90853
5.90843 3 0.0915679
5.90023 3 1.49767
5.90006 3 3
5.90023 3 4.50233
5.90843 3 5.90843
5.90853 4.50242 0.0914741
5.90038 4.50239 1.49761
5.90023 4.50233 3
5.90038 4.50239 4.50239
5.90853 4.50242 5.90853
5.91549 5.91549 0.0845079
5.90853 5.90853 1.49758
5.90843 5.90843 3
5.90853 5.90853 4.50242
5.91549 5.91549 5.91549

VERTICES 125 250
1 0
1 1
1 2
1 3
1 4
1 5
1 6
1 7
1 8
1 9
1 10
1 11
1 12
1 13
1 14
1 15
1 16
1 17
1 18
1 19
1 20
1 21
1 22
1 23
1 24
1 25
1 26
1 27
1 28
1 29
1 30
1 31
1 32
1 33
1 34
1 35
1 36
1 37
1 38
1 39
1 40
1 41
1 42
1 43
1 44
1 45
1 46
1 47
1 48
1 49
1 50
1 51
1 52
1 53
1 54
1 55
1 56
1 57
1 58
1 59
1 60
1 61
1 62
1 63
1 64
1 65
1 66
1 67
1 68
1 69
1 70
1 71
1 72
1 73
1 74
1 75
1 76
1 77
1 78
1 79
1 80
1 81
1 82
1 83
1 84
1 85
1 86
1 87
1 88
1 89
1 90
1 91
1 92
1 93
1 94
1 95
1 96
1 97
1 98
1 99
1 100
1 101
1 102
1 103
1 104
1 105
1 106
1 107
1 108
1 109
1 110
1 111
1 112
1 113
1 114
1 115
1 116
1 117
1 118
1 119
1 120
1 121
1 122
1 123
1 124

POINT_DATA 125
SCALARS speed double 1
LOOKUP_TABLE default
0.91312
0.808928
0.806814
0.808928
0.91312
0.808928
0.625651
0.623454
0.625651
0.808928
0.806814
0.623454
0.621375
0.623454
0.806814
0.808928
0.625651
0.623454
0.625651
0.808928
0.91312
0.808928
0.806814
0.808928
0.91312
0.808928
0.625651
0.623454
0.625651
0.808928
0.625651
0.0807352
0.0652007
0.0807352
0.625651
0.623454
0.0652007
0.0455642
0.0652007
0.623454
0.625651
0.0807352
0.0652007
0.0807352
0.625651
0.808928
0.625651
0.623454
0.625651
0.808928
0.806814
0.623454
0.621375
0.623454
0.806814
0.623454
0.0652007
0.0455642
0.0652007
0.623454
0.621375
0.0455642
1.08717e-14
0.0455642
0.621375
0.623454
0.0652007
0.0455642
0.0652007
0.623454
0.806814
0.623454
0.621375
0.623454
0.806814
0.808928
0.625651
0.623454
0.625651
0.808928
0.625651
0.0807352
0.0652007
0.0807352
0.625651
0.623454
0.0652007
0.0455642
0.0652007
0.623454
0.625651
0.0807352
0.0652007
0.0807352
0.625651
0.808928
0.625651
0.623454
0.625651
0.808928
0.91312
0.808928
0.806814
0.808928
0.91312
0.808928
0.625651
0.623454
0.625651
0.808928
0.806814
0.623454
0.621375
0.623454
0.806814
0.808928
0.625651
0.623454
0.625651
0.808928
0.91312
0.808928
0.806814
0.808928
0.91312

SCALARS mass double 1
LOOKUP_TABLE default
1
1
1
1
1
1
1
1
1
1
1
1
1
1
1
1
1
1
1
1
1
1
1
1
1
1
1
1
1
1
1
1
1
1
1
1
1
1
1
1
1
1
1
1
1
1
1
1
1
1
1
1
1
1
1
1
1
1
1
1
1
1
1
1
1
1
1
1
1
1
1
1
1
1
1
1
1
1
1
1
1
1
1
1
1
1
1
1
1
1
1
1
1
1
1
1
1
1
1
1
1
1
1
1
1
1
1
1
1
1
1
1
1
1
1
1
1
1
1
1
1
1
1
1
1
