# vtk DataFile Version 3.0
Molecular dynamics particles
ASCII
DATASET POLYDATA
POINTS 125 double
0.00561884 0.00561884 0.00561884
0.00607607 0.00607607 1.50009
0.00609433 0.00609433 3
0.00607607 0.00607607 4.49991
0.00561884 0.00561884 5.99438
0.00607607 1.50009 0.00607607
0.00661324 1.50012 1.50012
0.00663723 1.50013 3
0.00661324 1.50012 4.49988
0.00607607 1.50009 5.99392
0.00609433 3 0.00609433
0.00663723 3 1.50013
0.00666229 3 3
0.00663723 3 4.49987
0.00609433 3 5.99391
0.00607607 4.49991 0.00607607
0.00661324 4.49988 1.50012
0.00663723 4.49987 3
0.00661324 4.49988 4.49988
0.00607607 4.49991 5.99392
0.00561884 5.99438 0.00561884
0.00607607 5.99392 1.50009
0.00609433 5.99391 3
0.00607607 5.99392 4.49991
0.00561884 5.99438 5.99438
1.50009 0.00607607 0.00607607
1.50012 0.00661324 1.50012
1.50013 0.00663723 3
1.50012 0.00661324 4.49988
1.50009 0.00607607 5.99392
1.50012 1.50012 0.00661324
1.50016 1.50016 1.50016
1.50017 1.50017 3
1.50016 1.50016 4.49984
1.50012 1.50012 5.99339
1.50013 3 0.00663723
1.50017 3 1.50017
1.50018 3 3
1.50017 3 4.49983
1.50013 3 5.99336
1.50012 4.49988 0.00661324
1.50016 4.49984 1.50016
1.50017 4.49983 3
1.50016 4.49984 4.49984
1.50012 4.49988 5.99339
1.50009 5.99392 0.00607607
1.50012 5.99339 1.50012
1.50013 5.99336 3
1.50012 5.99339 4.49988
1.50009 5.99392 5.99392
3 0.00609433 0.00609433
3 0.00663723 1.50013
3 0.00666229 3
3 0.00663723 4.49987
3 0.00609433 5.99391
3 1.50013 0.00663723
3 1.50017 1.50017
3 1.50018 3
3 1.50017 4.49983
3 1.50013 5.99336
3 3 0.00666229
3 3 1.50018
3 3 3
3 3 4.49982
3 3 5.99334
3 4.49987 0.00663723
3 4.49983 1.50017
3 4.49982 3
3 4.49983 4.49983
3 4.49987 5.99336
3 5.99391 0.00609433
3 5.99336 1.50013
3 5.99334 3
3 5.99336 4.49987
3 5.99391 5.99391
4.49991 0.00607607 0.00607607
4.49988 0.00661324 1.50012
4.49987 0.00663723 3
4.49988 0.00661324 4.49988
4.49991 0.00607607 5.99392
4.49988 1.50012 0.00661324
4.49984 1.50016 1.50016
4.49983 1.50017 3
4.49984 1.50016 4.49984
4.49988 1.50012 5.99339
4.49987 3 0.00663723
4.49983 3 1.50017
4.49982 3 3
4.49983 3 4.49983
4.49987 3 5.99336
4.49988 4.49988 0.00661324
4.49984 4.49984 1.50016
4.49983 4.49983 3
4.49984 4.49984 4.49984
4.49988 4.49988 5.99339
4.49991 5.99392 0.00607607
4.49988 5.99339 1.50012
4.49987 5.99336 3
4.49988 5.99339 4.49988
4.49991 5.99392 5.99392
5.99438 0.00561884 0.00561884
5.99392 0.00607607 1.50009
5.99391 0.00609433 3
5.99392 0.00607607 4.49991
5.99438 0.00561884 5.99438
5.99392 1.50009 0.00607607
5.99339 1.50012 1.50012
5.99336 1.50013 3
5.99339 1.50012 4.49988
5.99392 1.50009 5.99392
5.99391 3 0.00609433
5.99336 3 1.50013
5.99334 3 3
5.99336 3 4.49987
5.99391 3 5.99391
5.99392 4.49991 0.00607607
5.99339 4.49988 1.50012
5.99336 4.49987 3
5.99339 4.49988 4.49988
5.99392 4.49991 5.99392
5.99438 5.99438 0.00561884
5.99392 5.99392 1.50009
5.99391 5.99391 3
5.99392 5.99392 4.49991
5.99438 5.99438 5.99438

VERTICES 125 250
1 0
1 1
1 2
1 3
1 4
1 5
1 6
1 7
1 8
1 9
1 10
1 11
1 12
1 13
1 14
1 15
1 16
1 17
1 18
1 19
1 20
1 21
1 22
1 23
1 24
1 25
1 26
1 27
1 28
1 29
1 30
1 31
1 32
1 33
1 34
1 35
1 36
1 37
1 38
1 39
1 40
1 41
1 42
1 43
1 44
1 45
1 46
1 47
1 48
1 49
1 50
1 51
1 52
1 53
1 54
1 55
1 56
1 57
1 58
1 59
1 60
1 61
1 62
1 63
1 64
1 65
1 66
1 67
1 68
1 69
1 70
1 71
1 72
1 73
1 74
1 75
1 76
1 77
1 78
1 79
1 80
1 81
1 82
1 83
1 84
1 85
1 86
1 87
1 88
1 89
1 90
1 91
1 92
1 93
1 94
1 95
1 96
1 97
1 98
1 99
1 100
1 101
1 102
1 103
1 104
1 105
1 106
1 107
1 108
1 109
1 110
1 111
1 112
1 113
1 114
1 115
1 116
1 117
1 118
1 119
1 120
1 121
1 122
1 123
1 124

POINT_DATA 125
SCALARS speed double 1
LOOKUP_TABLE default
0.217066
0.191676
0.19222
0.191676
0.217066
0.191676
0.147555
0.148053
0.147555
0.191676
0.19222
0.148053
0.148572
0.148053
0.19222
0.191676
0.147555
0.148053
0.147555
0.191676
0.217066
0.191676
0.19222
0.191676
0.217066
0.191676
0.147555
0.148053
0.147555
0.191676
0.147555
0.00548318
0.00468767
0.00548318
0.147555
0.148053
0.00468767
0.00347412
0.00468767
0.148053
0.147555
0.00548318
0.00468767
0.00548318
0.147555
0.191676
0.147555
0.148053
0.147555
0.191676
0.19222
0.148053
0.148572
0.148053
0.19222
0.148053
0.00468767
0.00347412
0.00468767
0.148053
0.148572
0.00347412
3.14347e-15
0.00347412
0.148572
0.148053
0.00468767
0.00347412
0.00468767
0.148053
0.19222
0.148053
0.148572
0.148053
0.19222
0.191676
0.147555
0.148053
0.147555
0.191676
0.147555
0.00548318
0.00468767
0.00548318
0.147555
0.148053
0.00468767
0.00347412
0.00468767
0.148053
0.147555
0.00548318
0.00468767
0.00548318
0.147555
0.191676
0.147555
0.148053
0.147555
0.191676
0.217066
0.191676
0.19222
0.191676
0.217066
0.191676
0.147555
0.148053
0.147555
0.191676
0.19222
0.148053
0.148572
0.148053
0.19222
0.191676
0.147555
0.148053
0.147555
0.191676
0.217066
0.191676
0.19222
0.191676
0.217066

SCALARS mass double 1
LOOKUP_TABLE default
1
1
1
1
1
1
1
1
1
1
1
1
1
1
1
1
1
1
1
1
1
1
1
1
1
1
1
1
1
1
1
1
1
1
1
1
1
1
1
1
1
1
1
1
1
1
1
1
1
1
1
1
1
1
1
1
1
1
1
1
1
1
1
1
1
1
1
1
1
1
1
1
1
1
1
1
1
1
1
1
1
1
1
1
1
1
1
1
1
1
1
1
1
1
1
1
1
1
1
1
1
1
1
1
1
1
1
1
1
1
1
1
1
1
1
1
1
1
1
1
1
1
1
1
1
