# vtk DataFile Version 3.0
Molecular dynamics particles
ASCII
DATASET POLYDATA
POINTS 125 double
0.0604955 0.0604955 0.0604955
0.0654621 0.0654621 1.49911
0.0655718 0.0655718 3
0.0654621 0.0654621 4.50089
0.0604955 0.0604955 5.9395
0.0654621 1.49911 0.0654621
0.0712811 1.49922 1.49922
0.071438 1.49927 3
0.0712811 1.49922 4.50078
0.0654621 1.49911 5.93454
0.0655718 3 0.0655718
0.071438 3 1.49927
0.0716047 3 3
0.071438 3 4.50073
0.0655718 3 5.93443
0.0654621 4.50089 0.0654621
0.0712811 4.50078 1.49922
0.071438 4.50073 3
0.0712811 4.50078 4.50078
0.0654621 4.50089 5.93454
0.0604955 5.9395 0.0604955
0.0654621 5.93454 1.49911
0.0655718 5.93443 3
0.0654621 5.93454 4.50089
0.0604955 5.9395 5.9395
1.49911 0.0654621 0.0654621
1.49922 0.0712811 1.49922
1.49927 0.071438 3
1.49922 0.0712811 4.50078
1.49911 0.0654621 5.93454
1.49922 1.49922 0.0712811
1.4994 1.4994 1.4994
1.49946 1.49946 3
1.4994 1.4994 4.5006
1.49922 1.49922 5.92872
1.49927 3 0.071438
1.49946 3 1.49946
1.49953 3 3
1.49946 3 4.50054
1.49927 3 5.92856
1.49922 4.50078 0.0712811
1.4994 4.5006 1.4994
1.49946 4.50054 3
1.4994 4.5006 4.5006
1.49922 4.50078 5.92872
1.49911 5.93454 0.0654621
1.49922 5.92872 1.49922
1.49927 5.92856 3
1.49922 5.92872 4.50078
1.49911 5.93454 5.93454
3 0.0655718 0.0655718
3 0.071438 1.49927
3 0.0716047 3
3 0.071438 4.50073
3 0.0655718 5.93443
3 1.49927 0.071438
3 1.49946 1.49946
3 1.49953 3
3 1.49946 4.50054
3 1.49927 5.92856
3 3 0.0716047
3 3 1.49953
3 3 3
3 3 4.50047
3 3 5.9284
3 4.50073 0.071438
3 4.50054 1.49946
3 4.50047 3
3 4.50054 4.50054
3 4.50073 5.92856
3 5.93443 0.0655718
3 5.92856 1.49927
3 5.9284 3
3 5.92856 4.50073
3 5.93443 5.93443
4.50089 0.0654621 0.0654621
4.50078 0.0712811 1.49922
4.50073 0.071438 3
4.50078 0.0712811 4.50078
4.50089 0.0654621 5.93454
4.50078 1.49922 0.0712811
4.5006 1.4994 1.4994
4.50054 1.49946 3
4.5006 1.4994 4.5006
4.50078 1.49922 5.92872
4.50073 3 0.071438
4.50054 3 1.49946
4.50047 3 3
4.50054 3 4.50054
4.50073 3 5.92856
4.50078 4.50078 0.0712811
4.5006 4.5006 1.4994
4.50054 4.50054 3
4.5006 4.5006 4.5006
4.50078 4.50078 5.92872
4.50089 5.93454 0.0654621
4.50078 5.92872 1.49922
4.50073 5.92856 3
4.50078 5.92872 4.50078
4.50089 5.93454 5.93454
5.9395 0.0604955 0.0604955
5.93454 0.0654621 1.49911
5.93443 0.0655718 3
5.93454 0.0654621 4.50089
5.9395 0.0604955 5.9395
5.93454 1.49911 0.0654621
5.92872 1.49922 1.49922
5.92856 1.49927 3
5.92872 1.49922 4.50078
5.93454 1.49911 5.93454
5.93443 3 0.0655718
5.92856 3 1.49927
5.9284 3 3
5.92856 3 4.50073
5.93443 3 5.93443
5.93454 4.50089 0.0654621
5.92872 4.50078 1.49922
5.92856 4.50073 3
5.92872 4.50078 4.50078
5.93454 4.50089 5.93454
5.9395 5.9395 0.0604955
5.93454 5.93454 1.49911
5.93443 5.93443 3
5.93454 5.93454 4.50089
5.9395 5.9395 5.9395

VERTICES 125 250
1 0
1 1
1 2
1 3
1 4
1 5
1 6
1 7
1 8
1 9
1 10
1 11
1 12
1 13
1 14
1 15
1 16
1 17
1 18
1 19
1 20
1 21
1 22
1 23
1 24
1 25
1 26
1 27
1 28
1 29
1 30
1 31
1 32
1 33
1 34
1 35
1 36
1 37
1 38
1 39
1 40
1 41
1 42
1 43
1 44
1 45
1 46
1 47
1 48
1 49
1 50
1 51
1 52
1 53
1 54
1 55
1 56
1 57
1 58
1 59
1 60
1 61
1 62
1 63
1 64
1 65
1 66
1 67
1 68
1 69
1 70
1 71
1 72
1 73
1 74
1 75
1 76
1 77
1 78
1 79
1 80
1 81
1 82
1 83
1 84
1 85
1 86
1 87
1 88
1 89
1 90
1 91
1 92
1 93
1 94
1 95
1 96
1 97
1 98
1 99
1 100
1 101
1 102
1 103
1 104
1 105
1 106
1 107
1 108
1 109
1 110
1 111
1 112
1 113
1 114
1 115
1 116
1 117
1 118
1 119
1 120
1 121
1 122
1 123
1 124

POINT_DATA 125
SCALARS speed double 1
LOOKUP_TABLE default
0.753131
0.666273
0.665988
0.666273
0.753131
0.666273
0.513977
0.513733
0.513977
0.666273
0.665988
0.513733
0.513572
0.513733
0.665988
0.666273
0.513977
0.513733
0.513977
0.666273
0.753131
0.666273
0.665988
0.666273
0.753131
0.666273
0.513977
0.513733
0.513977
0.666273
0.513977
0.0402316
0.0323307
0.0402316
0.513977
0.513733
0.0323307
0.0224679
0.0323307
0.513733
0.513977
0.0402316
0.0323307
0.0402316
0.513977
0.666273
0.513977
0.513733
0.513977
0.666273
0.665988
0.513733
0.513572
0.513733
0.665988
0.513733
0.0323307
0.0224679
0.0323307
0.513733
0.513572
0.0224679
6.12676e-15
0.0224679
0.513572
0.513733
0.0323307
0.0224679
0.0323307
0.513733
0.665988
0.513733
0.513572
0.513733
0.665988
0.666273
0.513977
0.513733
0.513977
0.666273
0.513977
0.0402316
0.0323307
0.0402316
0.513977
0.513733
0.0323307
0.0224679
0.0323307
0.513733
0.513977
0.0402316
0.0323307
0.0402316
0.513977
0.666273
0.513977
0.513733
0.513977
0.666273
0.753131
0.666273
0.665988
0.666273
0.753131
0.666273
0.513977
0.513733
0.513977
0.666273
0.665988
0.513733
0.513572
0.513733
0.665988
0.666273
0.513977
0.513733
0.513977
0.666273
0.753131
0.666273
0.665988
0.666273
0.753131

SCALARS mass double 1
LOOKUP_TABLE default
1
1
1
1
1
1
1
1
1
1
1
1
1
1
1
1
1
1
1
1
1
1
1
1
1
1
1
1
1
1
1
1
1
1
1
1
1
1
1
1
1
1
1
1
1
1
1
1
1
1
1
1
1
1
1
1
1
1
1
1
1
1
1
1
1
1
1
1
1
1
1
1
1
1
1
1
1
1
1
1
1
1
1
1
1
1
1
1
1
1
1
1
1
1
1
1
1
1
1
1
1
1
1
1
1
1
1
1
1
1
1
1
1
1
1
1
1
1
1
1
1
1
1
1
1
