# vtk DataFile Version 3.0
Molecular dynamics particles
ASCII
DATASET POLYDATA
POINTS 125 double
0.40499 0.40499 0.40499
0.446788 0.446788 1.73039
0.430446 0.430446 3
0.446788 0.446788 4.26961
0.40499 0.40499 5.59501
0.446788 1.73039 0.446788
0.507271 1.78602 1.78602
0.483906 1.76813 3
0.507271 1.78602 4.21398
0.446788 1.73039 5.55321
0.430446 3 0.430446
0.483906 3 1.76813
0.465018 3 3
0.483906 3 4.23187
0.430446 3 5.56955
0.446788 4.26961 0.446788
0.507271 4.21398 1.78602
0.483906 4.23187 3
0.507271 4.21398 4.21398
0.446788 4.26961 5.55321
0.40499 5.59501 0.40499
0.446788 5.55321 1.73039
0.430446 5.56955 3
0.446788 5.55321 4.26961
0.40499 5.59501 5.59501
1.73039 0.446788 0.446788
1.78602 0.507271 1.78602
1.76813 0.483906 3
1.78602 0.507271 4.21398
1.73039 0.446788 5.55321
1.78602 1.78602 0.507271
1.85436 1.85436 1.85436
1.83323 1.83323 3
1.85436 1.85436 4.14564
1.78602 1.78602 5.49273
1.76813 3 0.483906
1.83323 3 1.83323
1.81459 3 3
1.83323 3 4.16677
1.76813 3 5.51609
1.78602 4.21398 0.507271
1.85436 4.14564 1.85436
1.83323 4.16677 3
1.85436 4.14564 4.14564
1.78602 4.21398 5.49273
1.73039 5.55321 0.446788
1.78602 5.49273 1.78602
1.76813 5.51609 3
1.78602 5.49273 4.21398
1.73039 5.55321 5.55321
3 0.430446 0.430446
3 0.483906 1.76813
3 0.465018 3
3 0.483906 4.23187
3 0.430446 5.56955
3 1.76813 0.483906
3 1.83323 1.83323
3 1.81459 3
3 1.83323 4.16677
3 1.76813 5.51609
3 3 0.465018
3 3 1.81459
3 3 3
3 3 4.18541
3 3 5.53498
3 4.23187 0.483906
3 4.16677 1.83323
3 4.18541 3
3 4.16677 4.16677
3 4.23187 5.51609
3 5.56955 0.430446
3 5.51609 1.76813
3 5.53498 3
3 5.51609 4.23187
3 5.56955 5.56955
4.26961 0.446788 0.446788
4.21398 0.507271 1.78602
4.23187 0.483906 3
4.21398 0.507271 4.21398
4.26961 0.446788 5.55321
4.21398 1.78602 0.507271
4.14564 1.85436 1.85436
4.16677 1.83323 3
4.14564 1.85436 4.14564
4.21398 1.78602 5.49273
4.23187 3 0.483906
4.16677 3 1.83323
4.18541 3 3
4.16677 3 4.16677
4.23187 3 5.51609
4.21398 4.21398 0.507271
4.14564 4.14564 1.85436
4.16677 4.16677 3
4.14564 4.14564 4.14564
4.21398 4.21398 5.49273
4.26961 5.55321 0.446788
4.21398 5.49273 1.78602
4.23187 5.51609 3
4.21398 5.49273 4.21398
4.26961 5.55321 5.55321
5.59501 0.40499 0.40499
5.55321 0.446788 1.73039
5.56955 0.430446 3
5.55321 0.446788 4.26961
5.59501 0.40499 5.59501
5.55321 1.73039 0.446788
5.49273 1.78602 1.78602
5.51609 1.76813 3
5.49273 1.78602 4.21398
5.55321 1.73039 5.55321
5.56955 3 0.430446
5.51609 3 1.76813
5.53498 3 3
5.51609 3 4.23187
5.56955 3 5.56955
5.55321 4.26961 0.446788
5.49273 4.21398 1.78602
5.51609 4.23187 3
5.49273 4.21398 4.21398
5.55321 4.26961 5.55321
5.59501 5.59501 0.40499
5.55321 5.55321 1.73039
5.56955 5.56955 3
5.55321 5.55321 4.26961
5.59501 5.59501 5.59501

VERTICES 125 250
1 0
1 1
1 2
1 3
1 4
1 5
1 6
1 7
1 8
1 9
1 10
1 11
1 12
1 13
1 14
1 15
1 16
1 17
1 18
1 19
1 20
1 21
1 22
1 23
1 24
1 25
1 26
1 27
1 28
1 29
1 30
1 31
1 32
1 33
1 34
1 35
1 36
1 37
1 38
1 39
1 40
1 41
1 42
1 43
1 44
1 45
1 46
1 47
1 48
1 49
1 50
1 51
1 52
1 53
1 54
1 55
1 56
1 57
1 58
1 59
1 60
1 61
1 62
1 63
1 64
1 65
1 66
1 67
1 68
1 69
1 70
1 71
1 72
1 73
1 74
1 75
1 76
1 77
1 78
1 79
1 80
1 81
1 82
1 83
1 84
1 85
1 86
1 87
1 88
1 89
1 90
1 91
1 92
1 93
1 94
1 95
1 96
1 97
1 98
1 99
1 100
1 101
1 102
1 103
1 104
1 105
1 106
1 107
1 108
1 109
1 110
1 111
1 112
1 113
1 114
1 115
1 116
1 117
1 118
1 119
1 120
1 121
1 122
1 123
1 124

POINT_DATA 125
SCALARS speed double 1
LOOKUP_TABLE default
0.155031
1.40814
0.361249
1.40814
0.155031
1.40814
2.14507
1.49871
2.14507
1.40814
0.361249
1.49871
0.468659
1.49871
0.361249
1.40814
2.14507
1.49871
2.14507
1.40814
0.155031
1.40814
0.361249
1.40814
0.155031
1.40814
2.14507
1.49871
2.14507
1.40814
2.14507
2.7511
2.18459
2.7511
2.14507
1.49871
2.18459
1.50335
2.18459
1.49871
2.14507
2.7511
2.18459
2.7511
2.14507
1.40814
2.14507
1.49871
2.14507
1.40814
0.361249
1.49871
0.468659
1.49871
0.361249
1.49871
2.18459
1.50335
2.18459
1.49871
0.468659
1.50335
6.61633e-14
1.50335
0.468659
1.49871
2.18459
1.50335
2.18459
1.49871
0.361249
1.49871
0.468659
1.49871
0.361249
1.40814
2.14507
1.49871
2.14507
1.40814
2.14507
2.7511
2.18459
2.7511
2.14507
1.49871
2.18459
1.50335
2.18459
1.49871
2.14507
2.7511
2.18459
2.7511
2.14507
1.40814
2.14507
1.49871
2.14507
1.40814
0.155031
1.40814
0.361249
1.40814
0.155031
1.40814
2.14507
1.49871
2.14507
1.40814
0.361249
1.49871
0.468659
1.49871
0.361249
1.40814
2.14507
1.49871
2.14507
1.40814
0.155031
1.40814
0.361249
1.40814
0.155031

SCALARS mass double 1
LOOKUP_TABLE default
1
1
1
1
1
1
1
1
1
1
1
1
1
1
1
1
1
1
1
1
1
1
1
1
1
1
1
1
1
1
1
1
1
1
1
1
1
1
1
1
1
1
1
1
1
1
1
1
1
1
1
1
1
1
1
1
1
1
1
1
1
1
1
1
1
1
1
1
1
1
1
1
1
1
1
1
1
1
1
1
1
1
1
1
1
1
1
1
1
1
1
1
1
1
1
1
1
1
1
1
1
1
1
1
1
1
1
1
1
1
1
1
1
1
1
1
1
1
1
1
1
1
1
1
1
