# vtk DataFile Version 3.0
Molecular dynamics particles
ASCII
DATASET POLYDATA
POINTS 125 double
0.405725 0.405725 0.405725
0.432167 0.432167 1.63723
0.420449 0.420449 3
0.432167 0.432167 4.36277
0.405725 0.405725 5.59428
0.432167 1.63723 0.432167
0.473169 1.68509 1.68509
0.455753 1.67129 3
0.473169 1.68509 4.31491
0.432167 1.63723 5.56783
0.420449 3 0.420449
0.455753 3 1.67129
0.441698 3 3
0.455753 3 4.32871
0.420449 3 5.57955
0.432167 4.36277 0.432167
0.473169 4.31491 1.68509
0.455753 4.32871 3
0.473169 4.31491 4.31491
0.432167 4.36277 5.56783
0.405725 5.59428 0.405725
0.432167 5.56783 1.63723
0.420449 5.57955 3
0.432167 5.56783 4.36277
0.405725 5.59428 5.59428
1.63723 0.432167 0.432167
1.68509 0.473169 1.68509
1.67129 0.455753 3
1.68509 0.473169 4.31491
1.63723 0.432167 5.56783
1.68509 1.68509 0.473169
1.74365 1.74365 1.74365
1.72676 1.72676 3
1.74365 1.74365 4.25635
1.68509 1.68509 5.52683
1.67129 3 0.455753
1.72676 3 1.72676
1.71193 3 3
1.72676 3 4.27324
1.67129 3 5.54425
1.68509 4.31491 0.473169
1.74365 4.25635 1.74365
1.72676 4.27324 3
1.74365 4.25635 4.25635
1.68509 4.31491 5.52683
1.63723 5.56783 0.432167
1.68509 5.52683 1.68509
1.67129 5.54425 3
1.68509 5.52683 4.31491
1.63723 5.56783 5.56783
3 0.420449 0.420449
3 0.455753 1.67129
3 0.441698 3
3 0.455753 4.32871
3 0.420449 5.57955
3 1.67129 0.455753
3 1.72676 1.72676
3 1.71193 3
3 1.72676 4.27324
3 1.67129 5.54425
3 3 0.441698
3 3 1.71193
3 3 3
3 3 4.28807
3 3 5.5583
3 4.32871 0.455753
3 4.27324 1.72676
3 4.28807 3
3 4.27324 4.27324
3 4.32871 5.54425
3 5.57955 0.420449
3 5.54425 1.67129
3 5.5583 3
3 5.54425 4.32871
3 5.57955 5.57955
4.36277 0.432167 0.432167
4.31491 0.473169 1.68509
4.32871 0.455753 3
4.31491 0.473169 4.31491
4.36277 0.432167 5.56783
4.31491 1.68509 0.473169
4.25635 1.74365 1.74365
4.27324 1.72676 3
4.25635 1.74365 4.25635
4.31491 1.68509 5.52683
4.32871 3 0.455753
4.27324 3 1.72676
4.28807 3 3
4.27324 3 4.27324
4.32871 3 5.54425
4.31491 4.31491 0.473169
4.25635 4.25635 1.74365
4.27324 4.27324 3
4.25635 4.25635 4.25635
4.31491 4.31491 5.52683
4.36277 5.56783 0.432167
4.31491 5.52683 1.68509
4.32871 5.54425 3
4.31491 5.52683 4.31491
4.36277 5.56783 5.56783
5.59428 0.405725 0.405725
5.56783 0.432167 1.63723
5.57955 0.420449 3
5.56783 0.432167 4.36277
5.59428 0.405725 5.59428
5.56783 1.63723 0.432167
5.52683 1.68509 1.68509
5.54425 1.67129 3
5.52683 1.68509 4.31491
5.56783 1.63723 5.56783
5.57955 3 0.420449
5.54425 3 1.67129
5.5583 3 3
5.54425 3 4.32871
5.57955 3 5.57955
5.56783 4.36277 0.432167
5.52683 4.31491 1.68509
5.54425 4.32871 3
5.52683 4.31491 4.31491
5.56783 4.36277 5.56783
5.59428 5.59428 0.405725
5.56783 5.56783 1.63723
5.57955 5.57955 3
5.56783 5.56783 4.36277
5.59428 5.59428 5.59428

VERTICES 125 250
1 0
1 1
1 2
1 3
1 4
1 5
1 6
1 7
1 8
1 9
1 10
1 11
1 12
1 13
1 14
1 15
1 16
1 17
1 18
1 19
1 20
1 21
1 22
1 23
1 24
1 25
1 26
1 27
1 28
1 29
1 30
1 31
1 32
1 33
1 34
1 35
1 36
1 37
1 38
1 39
1 40
1 41
1 42
1 43
1 44
1 45
1 46
1 47
1 48
1 49
1 50
1 51
1 52
1 53
1 54
1 55
1 56
1 57
1 58
1 59
1 60
1 61
1 62
1 63
1 64
1 65
1 66
1 67
1 68
1 69
1 70
1 71
1 72
1 73
1 74
1 75
1 76
1 77
1 78
1 79
1 80
1 81
1 82
1 83
1 84
1 85
1 86
1 87
1 88
1 89
1 90
1 91
1 92
1 93
1 94
1 95
1 96
1 97
1 98
1 99
1 100
1 101
1 102
1 103
1 104
1 105
1 106
1 107
1 108
1 109
1 110
1 111
1 112
1 113
1 114
1 115
1 116
1 117
1 118
1 119
1 120
1 121
1 122
1 123
1 124

POINT_DATA 125
SCALARS speed double 1
LOOKUP_TABLE default
0.201621
1.34497
0.0364976
1.34497
0.201621
1.34497
2.06753
1.40373
2.06753
1.34497
0.0364976
1.40373
0.196713
1.40373
0.0364976
1.34497
2.06753
1.40373
2.06753
1.34497
0.201621
1.34497
0.0364976
1.34497
0.201621
1.34497
2.06753
1.40373
2.06753
1.34497
2.06753
2.72613
2.12675
2.72613
2.06753
1.40373
2.12675
1.44179
2.12675
1.40373
2.06753
2.72613
2.12675
2.72613
2.06753
1.34497
2.06753
1.40373
2.06753
1.34497
0.0364976
1.40373
0.196713
1.40373
0.0364976
1.40373
2.12675
1.44179
2.12675
1.40373
0.196713
1.44179
3.65711e-14
1.44179
0.196713
1.40373
2.12675
1.44179
2.12675
1.40373
0.0364976
1.40373
0.196713
1.40373
0.0364976
1.34497
2.06753
1.40373
2.06753
1.34497
2.06753
2.72613
2.12675
2.72613
2.06753
1.40373
2.12675
1.44179
2.12675
1.40373
2.06753
2.72613
2.12675
2.72613
2.06753
1.34497
2.06753
1.40373
2.06753
1.34497
0.201621
1.34497
0.0364976
1.34497
0.201621
1.34497
2.06753
1.40373
2.06753
1.34497
0.0364976
1.40373
0.196713
1.40373
0.0364976
1.34497
2.06753
1.40373
2.06753
1.34497
0.201621
1.34497
0.0364976
1.34497
0.201621

SCALARS mass double 1
LOOKUP_TABLE default
1
1
1
1
1
1
1
1
1
1
1
1
1
1
1
1
1
1
1
1
1
1
1
1
1
1
1
1
1
1
1
1
1
1
1
1
1
1
1
1
1
1
1
1
1
1
1
1
1
1
1
1
1
1
1
1
1
1
1
1
1
1
1
1
1
1
1
1
1
1
1
1
1
1
1
1
1
1
1
1
1
1
1
1
1
1
1
1
1
1
1
1
1
1
1
1
1
1
1
1
1
1
1
1
1
1
1
1
1
1
1
1
1
1
1
1
1
1
1
1
1
1
1
1
1
