# vtk DataFile Version 3.0
Molecular dynamics particles
ASCII
DATASET POLYDATA
POINTS 125 double
0.412598 0.412598 0.412598
0.465966 0.465966 1.79798
0.446932 0.446932 3
0.465966 0.465966 4.20202
0.412598 0.412598 5.5874
0.465966 1.79798 0.465966
0.541203 1.85951 1.85951
0.51458 1.83945 3
0.541203 1.85951 4.14049
0.465966 1.79798 5.53403
0.446932 3 0.446932
0.51458 3 1.83945
0.493224 3 3
0.51458 3 4.16055
0.446932 3 5.55307
0.465966 4.20202 0.465966
0.541203 4.14049 1.85951
0.51458 4.16055 3
0.541203 4.14049 4.14049
0.465966 4.20202 5.53403
0.412598 5.5874 0.412598
0.465966 5.53403 1.79798
0.446932 5.55307 3
0.465966 5.53403 4.20202
0.412598 5.5874 5.5874
1.79798 0.465966 0.465966
1.85951 0.541203 1.85951
1.83945 0.51458 3
1.85951 0.541203 4.14049
1.79798 0.465966 5.53403
1.85951 1.85951 0.541203
1.93223 1.93223 1.93223
1.9105 1.9105 3
1.93223 1.93223 4.06777
1.85951 1.85951 5.4588
1.83945 3 0.51458
1.9105 3 1.9105
1.89101 3 3
1.9105 3 4.0895
1.83945 3 5.48542
1.85951 4.14049 0.541203
1.93223 4.06777 1.93223
1.9105 4.0895 3
1.93223 4.06777 4.06777
1.85951 4.14049 5.4588
1.79798 5.53403 0.465966
1.85951 5.4588 1.85951
1.83945 5.48542 3
1.85951 5.4588 4.14049
1.79798 5.53403 5.53403
3 0.446932 0.446932
3 0.51458 1.83945
3 0.493224 3
3 0.51458 4.16055
3 0.446932 5.55307
3 1.83945 0.51458
3 1.9105 1.9105
3 1.89101 3
3 1.9105 4.0895
3 1.83945 5.48542
3 3 0.493224
3 3 1.89101
3 3 3
3 3 4.10899
3 3 5.50678
3 4.16055 0.51458
3 4.0895 1.9105
3 4.10899 3
3 4.0895 4.0895
3 4.16055 5.48542
3 5.55307 0.446932
3 5.48542 1.83945
3 5.50678 3
3 5.48542 4.16055
3 5.55307 5.55307
4.20202 0.465966 0.465966
4.14049 0.541203 1.85951
4.16055 0.51458 3
4.14049 0.541203 4.14049
4.20202 0.465966 5.53403
4.14049 1.85951 0.541203
4.06777 1.93223 1.93223
4.0895 1.9105 3
4.06777 1.93223 4.06777
4.14049 1.85951 5.4588
4.16055 3 0.51458
4.0895 3 1.9105
4.10899 3 3
4.0895 3 4.0895
4.16055 3 5.48542
4.14049 4.14049 0.541203
4.06777 4.06777 1.93223
4.0895 4.0895 3
4.06777 4.06777 4.06777
4.14049 4.14049 5.4588
4.20202 5.53403 0.465966
4.14049 5.4588 1.85951
4.16055 5.48542 3
4.14049 5.4588 4.14049
4.20202 5.53403 5.53403
5.5874 0.412598 0.412598
5.53403 0.465966 1.79798
5.55307 0.446932 3
5.53403 0.465966 4.20202
5.5874 0.412598 5.5874
5.53403 1.79798 0.465966
5.4588 1.85951 1.85951
5.48542 1.83945 3
5.4588 1.85951 4.14049
5.53403 1.79798 5.53403
5.55307 3 0.446932
5.48542 3 1.83945
5.50678 3 3
5.48542 3 4.16055
5.55307 3 5.55307
5.53403 4.20202 0.465966
5.4588 4.14049 1.85951
5.48542 4.16055 3
5.4588 4.14049 4.14049
5.53403 4.20202 5.53403
5.5874 5.5874 0.412598
5.53403 5.53403 1.79798
5.55307 5.55307 3
5.53403 5.53403 4.20202
5.5874 5.5874 5.5874

VERTICES 125 250
1 0
1 1
1 2
1 3
1 4
1 5
1 6
1 7
1 8
1 9
1 10
1 11
1 12
1 13
1 14
1 15
1 16
1 17
1 18
1 19
1 20
1 21
1 22
1 23
1 24
1 25
1 26
1 27
1 28
1 29
1 30
1 31
1 32
1 33
1 34
1 35
1 36
1 37
1 38
1 39
1 40
1 41
1 42
1 43
1 44
1 45
1 46
1 47
1 48
1 49
1 50
1 51
1 52
1 53
1 54
1 55
1 56
1 57
1 58
1 59
1 60
1 61
1 62
1 63
1 64
1 65
1 66
1 67
1 68
1 69
1 70
1 71
1 72
1 73
1 74
1 75
1 76
1 77
1 78
1 79
1 80
1 81
1 82
1 83
1 84
1 85
1 86
1 87
1 88
1 89
1 90
1 91
1 92
1 93
1 94
1 95
1 96
1 97
1 98
1 99
1 100
1 101
1 102
1 103
1 104
1 105
1 106
1 107
1 108
1 109
1 110
1 111
1 112
1 113
1 114
1 115
1 116
1 117
1 118
1 119
1 120
1 121
1 122
1 123
1 124

POINT_DATA 125
SCALARS speed double 1
LOOKUP_TABLE default
0.365681
1.51047
0.567666
1.51047
0.365681
1.51047
2.22157
1.60812
2.22157
1.51047
0.567666
1.60812
0.658941
1.60812
0.567666
1.51047
2.22157
1.60812
2.22157
1.51047
0.365681
1.51047
0.567666
1.51047
0.365681
1.51047
2.22157
1.60812
2.22157
1.51047
2.22157
2.57298
2.14932
2.57298
2.22157
1.60812
2.14932
1.53925
2.14932
1.60812
2.22157
2.57298
2.14932
2.57298
2.22157
1.51047
2.22157
1.60812
2.22157
1.51047
0.567666
1.60812
0.658941
1.60812
0.567666
1.60812
2.14932
1.53925
2.14932
1.60812
0.658941
1.53925
1.3285e-13
1.53925
0.658941
1.60812
2.14932
1.53925
2.14932
1.60812
0.567666
1.60812
0.658941
1.60812
0.567666
1.51047
2.22157
1.60812
2.22157
1.51047
2.22157
2.57298
2.14932
2.57298
2.22157
1.60812
2.14932
1.53925
2.14932
1.60812
2.22157
2.57298
2.14932
2.57298
2.22157
1.51047
2.22157
1.60812
2.22157
1.51047
0.365681
1.51047
0.567666
1.51047
0.365681
1.51047
2.22157
1.60812
2.22157
1.51047
0.567666
1.60812
0.658941
1.60812
0.567666
1.51047
2.22157
1.60812
2.22157
1.51047
0.365681
1.51047
0.567666
1.51047
0.365681

SCALARS mass double 1
LOOKUP_TABLE default
1
1
1
1
1
1
1
1
1
1
1
1
1
1
1
1
1
1
1
1
1
1
1
1
1
1
1
1
1
1
1
1
1
1
1
1
1
1
1
1
1
1
1
1
1
1
1
1
1
1
1
1
1
1
1
1
1
1
1
1
1
1
1
1
1
1
1
1
1
1
1
1
1
1
1
1
1
1
1
1
1
1
1
1
1
1
1
1
1
1
1
1
1
1
1
1
1
1
1
1
1
1
1
1
1
1
1
1
1
1
1
1
1
1
1
1
1
1
1
1
1
1
1
1
1
