# vtk DataFile Version 3.0
Molecular dynamics particles
ASCII
DATASET POLYDATA
POINTS 125 double
0.107197 0.107197 0.107197
0.116068 0.116068 1.49553
0.11611 0.11611 3
0.116068 0.116068 4.50447
0.107197 0.107197 5.8928
0.116068 1.49553 0.116068
0.126432 1.4954 1.4954
0.126533 1.49548 3
0.126432 1.4954 4.5046
0.116068 1.49553 5.88393
0.11611 3 0.11611
0.126533 3 1.49548
0.12665 3 3
0.126533 3 4.50452
0.11611 3 5.88389
0.116068 4.50447 0.116068
0.126432 4.5046 1.4954
0.126533 4.50452 3
0.126432 4.5046 4.5046
0.116068 4.50447 5.88393
0.107197 5.8928 0.107197
0.116068 5.88393 1.49553
0.11611 5.88389 3
0.116068 5.88393 4.50447
0.107197 5.8928 5.8928
1.49553 0.116068 0.116068
1.4954 0.126432 1.4954
1.49548 0.126533 3
1.4954 0.126432 4.5046
1.49553 0.116068 5.88393
1.4954 1.4954 0.126432
1.49532 1.49532 1.49532
1.49543 1.49543 3
1.49532 1.49532 4.50468
1.4954 1.4954 5.87357
1.49548 3 0.126533
1.49543 3 1.49543
1.49554 3 3
1.49543 3 4.50457
1.49548 3 5.87347
1.4954 4.5046 0.126432
1.49532 4.50468 1.49532
1.49543 4.50457 3
1.49532 4.50468 4.50468
1.4954 4.5046 5.87357
1.49553 5.88393 0.116068
1.4954 5.87357 1.4954
1.49548 5.87347 3
1.4954 5.87357 4.5046
1.49553 5.88393 5.88393
3 0.11611 0.11611
3 0.126533 1.49548
3 0.12665 3
3 0.126533 4.50452
3 0.11611 5.88389
3 1.49548 0.126533
3 1.49543 1.49543
3 1.49554 3
3 1.49543 4.50457
3 1.49548 5.87347
3 3 0.12665
3 3 1.49554
3 3 3
3 3 4.50446
3 3 5.87335
3 4.50452 0.126533
3 4.50457 1.49543
3 4.50446 3
3 4.50457 4.50457
3 4.50452 5.87347
3 5.88389 0.11611
3 5.87347 1.49548
3 5.87335 3
3 5.87347 4.50452
3 5.88389 5.88389
4.50447 0.116068 0.116068
4.5046 0.126432 1.4954
4.50452 0.126533 3
4.5046 0.126432 4.5046
4.50447 0.116068 5.88393
4.5046 1.4954 0.126432
4.50468 1.49532 1.49532
4.50457 1.49543 3
4.50468 1.49532 4.50468
4.5046 1.4954 5.87357
4.50452 3 0.126533
4.50457 3 1.49543
4.50446 3 3
4.50457 3 4.50457
4.50452 3 5.87347
4.5046 4.5046 0.126432
4.50468 4.50468 1.49532
4.50457 4.50457 3
4.50468 4.50468 4.50468
4.5046 4.5046 5.87357
4.50447 5.88393 0.116068
4.5046 5.87357 1.4954
4.50452 5.87347 3
4.5046 5.87357 4.5046
4.50447 5.88393 5.88393
5.8928 0.107197 0.107197
5.88393 0.116068 1.49553
5.88389 0.11611 3
5.88393 0.116068 4.50447
5.8928 0.107197 5.8928
5.88393 1.49553 0.116068
5.87357 1.4954 1.4954
5.87347 1.49548 3
5.87357 1.4954 4.5046
5.88393 1.49553 5.88393
5.88389 3 0.11611
5.87347 3 1.49548
5.87335 3 3
5.87347 3 4.50452
5.88389 3 5.88389
5.88393 4.50447 0.116068
5.87357 4.5046 1.4954
5.87347 4.50452 3
5.87357 4.5046 4.5046
5.88393 4.50447 5.88393
5.8928 5.8928 0.107197
5.88393 5.88393 1.49553
5.88389 5.88389 3
5.88393 5.88393 4.50447
5.8928 5.8928 5.8928

VERTICES 125 250
1 0
1 1
1 2
1 3
1 4
1 5
1 6
1 7
1 8
1 9
1 10
1 11
1 12
1 13
1 14
1 15
1 16
1 17
1 18
1 19
1 20
1 21
1 22
1 23
1 24
1 25
1 26
1 27
1 28
1 29
1 30
1 31
1 32
1 33
1 34
1 35
1 36
1 37
1 38
1 39
1 40
1 41
1 42
1 43
1 44
1 45
1 46
1 47
1 48
1 49
1 50
1 51
1 52
1 53
1 54
1 55
1 56
1 57
1 58
1 59
1 60
1 61
1 62
1 63
1 64
1 65
1 66
1 67
1 68
1 69
1 70
1 71
1 72
1 73
1 74
1 75
1 76
1 77
1 78
1 79
1 80
1 81
1 82
1 83
1 84
1 85
1 86
1 87
1 88
1 89
1 90
1 91
1 92
1 93
1 94
1 95
1 96
1 97
1 98
1 99
1 100
1 101
1 102
1 103
1 104
1 105
1 106
1 107
1 108
1 109
1 110
1 111
1 112
1 113
1 114
1 115
1 116
1 117
1 118
1 119
1 120
1 121
1 122
1 123
1 124

POINT_DATA 125
SCALARS speed double 1
LOOKUP_TABLE default
1.054
0.935213
0.930426
0.935213
1.054
0.935213
0.725731
0.720551
0.725731
0.935213
0.930426
0.720551
0.715544
0.720551
0.930426
0.935213
0.725731
0.720551
0.725731
0.935213
1.054
0.935213
0.930426
0.935213
1.054
0.935213
0.725731
0.720551
0.725731
0.935213
0.725731
0.127968
0.103387
0.127968
0.725731
0.720551
0.103387
0.0722943
0.103387
0.720551
0.725731
0.127968
0.103387
0.127968
0.725731
0.935213
0.725731
0.720551
0.725731
0.935213
0.930426
0.720551
0.715544
0.720551
0.930426
0.720551
0.103387
0.0722943
0.103387
0.720551
0.715544
0.0722943
1.26732e-14
0.0722943
0.715544
0.720551
0.103387
0.0722943
0.103387
0.720551
0.930426
0.720551
0.715544
0.720551
0.930426
0.935213
0.725731
0.720551
0.725731
0.935213
0.725731
0.127968
0.103387
0.127968
0.725731
0.720551
0.103387
0.0722943
0.103387
0.720551
0.725731
0.127968
0.103387
0.127968
0.725731
0.935213
0.725731
0.720551
0.725731
0.935213
1.054
0.935213
0.930426
0.935213
1.054
0.935213
0.725731
0.720551
0.725731
0.935213
0.930426
0.720551
0.715544
0.720551
0.930426
0.935213
0.725731
0.720551
0.725731
0.935213
1.054
0.935213
0.930426
0.935213
1.054

SCALARS mass double 1
LOOKUP_TABLE default
1
1
1
1
1
1
1
1
1
1
1
1
1
1
1
1
1
1
1
1
1
1
1
1
1
1
1
1
1
1
1
1
1
1
1
1
1
1
1
1
1
1
1
1
1
1
1
1
1
1
1
1
1
1
1
1
1
1
1
1
1
1
1
1
1
1
1
1
1
1
1
1
1
1
1
1
1
1
1
1
1
1
1
1
1
1
1
1
1
1
1
1
1
1
1
1
1
1
1
1
1
1
1
1
1
1
1
1
1
1
1
1
1
1
1
1
1
1
1
1
1
1
1
1
1
