# vtk DataFile Version 3.0
Molecular dynamics particles
ASCII
DATASET POLYDATA
POINTS 125 double
0.304261 0.304261 0.304261
0.328978 0.328978 1.45492
0.326365 0.326365 3
0.328978 0.328978 4.54508
0.304261 0.304261 5.69574
0.328978 1.45492 0.328978
0.356536 1.45195 1.45195
0.353645 1.45305 3
0.356536 1.45195 4.54805
0.328978 1.45492 5.67102
0.326365 3 0.326365
0.353645 3 1.45305
0.350914 3 3
0.353645 3 4.54695
0.326365 3 5.67363
0.328978 4.54508 0.328978
0.356536 4.54805 1.45195
0.353645 4.54695 3
0.356536 4.54805 4.54805
0.328978 4.54508 5.67102
0.304261 5.69574 0.304261
0.328978 5.67102 1.45492
0.326365 5.67363 3
0.328978 5.67102 4.54508
0.304261 5.69574 5.69574
1.45492 0.328978 0.328978
1.45195 0.356536 1.45195
1.45305 0.353645 3
1.45195 0.356536 4.54805
1.45492 0.328978 5.67102
1.45195 1.45195 0.356536
1.4498 1.4498 1.4498
1.45107 1.45107 3
1.4498 1.4498 4.5502
1.45195 1.45195 5.64346
1.45305 3 0.353645
1.45107 3 1.45107
1.45232 3 3
1.45107 3 4.54893
1.45305 3 5.64635
1.45195 4.54805 0.356536
1.4498 4.5502 1.4498
1.45107 4.54893 3
1.4498 4.5502 4.5502
1.45195 4.54805 5.64346
1.45492 5.67102 0.328978
1.45195 5.64346 1.45195
1.45305 5.64635 3
1.45195 5.64346 4.54805
1.45492 5.67102 5.67102
3 0.326365 0.326365
3 0.353645 1.45305
3 0.350914 3
3 0.353645 4.54695
3 0.326365 5.67363
3 1.45305 0.353645
3 1.45107 1.45107
3 1.45232 3
3 1.45107 4.54893
3 1.45305 5.64635
3 3 0.350914
3 3 1.45232
3 3 3
3 3 4.54768
3 3 5.64909
3 4.54695 0.353645
3 4.54893 1.45107
3 4.54768 3
3 4.54893 4.54893
3 4.54695 5.64635
3 5.67363 0.326365
3 5.64635 1.45305
3 5.64909 3
3 5.64635 4.54695
3 5.67363 5.67363
4.54508 0.328978 0.328978
4.54805 0.356536 1.45195
4.54695 0.353645 3
4.54805 0.356536 4.54805
4.54508 0.328978 5.67102
4.54805 1.45195 0.356536
4.5502 1.4498 1.4498
4.54893 1.45107 3
4.5502 1.4498 4.5502
4.54805 1.45195 5.64346
4.54695 3 0.353645
4.54893 3 1.45107
4.54768 3 3
4.54893 3 4.54893
4.54695 3 5.64635
4.54805 4.54805 0.356536
4.5502 4.5502 1.4498
4.54893 4.54893 3
4.5502 4.5502 4.5502
4.54805 4.54805 5.64346
4.54508 5.67102 0.328978
4.54805 5.64346 1.45195
4.54695 5.64635 3
4.54805 5.64346 4.54805
4.54508 5.67102 5.67102
5.69574 0.304261 0.304261
5.67102 0.328978 1.45492
5.67363 0.326365 3
5.67102 0.328978 4.54508
5.69574 0.304261 5.69574
5.67102 1.45492 0.328978
5.64346 1.45195 1.45195
5.64635 1.45305 3
5.64346 1.45195 4.54805
5.67102 1.45492 5.67102
5.67363 3 0.326365
5.64635 3 1.45305
5.64909 3 3
5.64635 3 4.54695
5.67363 3 5.67363
5.67102 4.54508 0.328978
5.64346 4.54805 1.45195
5.64635 4.54695 3
5.64346 4.54805 4.54805
5.67102 4.54508 5.67102
5.69574 5.69574 0.304261
5.67102 5.67102 1.45492
5.67363 5.67363 3
5.67102 5.67102 4.54508
5.69574 5.69574 5.69574

VERTICES 125 250
1 0
1 1
1 2
1 3
1 4
1 5
1 6
1 7
1 8
1 9
1 10
1 11
1 12
1 13
1 14
1 15
1 16
1 17
1 18
1 19
1 20
1 21
1 22
1 23
1 24
1 25
1 26
1 27
1 28
1 29
1 30
1 31
1 32
1 33
1 34
1 35
1 36
1 37
1 38
1 39
1 40
1 41
1 42
1 43
1 44
1 45
1 46
1 47
1 48
1 49
1 50
1 51
1 52
1 53
1 54
1 55
1 56
1 57
1 58
1 59
1 60
1 61
1 62
1 63
1 64
1 65
1 66
1 67
1 68
1 69
1 70
1 71
1 72
1 73
1 74
1 75
1 76
1 77
1 78
1 79
1 80
1 81
1 82
1 83
1 84
1 85
1 86
1 87
1 88
1 89
1 90
1 91
1 92
1 93
1 94
1 95
1 96
1 97
1 98
1 99
1 100
1 101
1 102
1 103
1 104
1 105
1 106
1 107
1 108
1 109
1 110
1 111
1 112
1 113
1 114
1 115
1 116
1 117
1 118
1 119
1 120
1 121
1 122
1 123
1 124

POINT_DATA 125
SCALARS speed double 1
LOOKUP_TABLE default
2.11922
1.86137
1.78266
1.86137
2.11922
1.86137
1.4287
1.34896
1.4287
1.86137
1.78266
1.34896
1.27486
1.34896
1.78266
1.86137
1.4287
1.34896
1.4287
1.86137
2.11922
1.86137
1.78266
1.86137
2.11922
1.86137
1.4287
1.34896
1.4287
1.86137
1.4287
0.529772
0.413854
0.529772
1.4287
1.34896
0.413854
0.279974
0.413854
1.34896
1.4287
0.529772
0.413854
0.529772
1.4287
1.86137
1.4287
1.34896
1.4287
1.86137
1.78266
1.34896
1.27486
1.34896
1.78266
1.34896
0.413854
0.279974
0.413854
1.34896
1.27486
0.279974
1.80151e-14
0.279974
1.27486
1.34896
0.413854
0.279974
0.413854
1.34896
1.78266
1.34896
1.27486
1.34896
1.78266
1.86137
1.4287
1.34896
1.4287
1.86137
1.4287
0.529772
0.413854
0.529772
1.4287
1.34896
0.413854
0.279974
0.413854
1.34896
1.4287
0.529772
0.413854
0.529772
1.4287
1.86137
1.4287
1.34896
1.4287
1.86137
2.11922
1.86137
1.78266
1.86137
2.11922
1.86137
1.4287
1.34896
1.4287
1.86137
1.78266
1.34896
1.27486
1.34896
1.78266
1.86137
1.4287
1.34896
1.4287
1.86137
2.11922
1.86137
1.78266
1.86137
2.11922

SCALARS mass double 1
LOOKUP_TABLE default
1
1
1
1
1
1
1
1
1
1
1
1
1
1
1
1
1
1
1
1
1
1
1
1
1
1
1
1
1
1
1
1
1
1
1
1
1
1
1
1
1
1
1
1
1
1
1
1
1
1
1
1
1
1
1
1
1
1
1
1
1
1
1
1
1
1
1
1
1
1
1
1
1
1
1
1
1
1
1
1
1
1
1
1
1
1
1
1
1
1
1
1
1
1
1
1
1
1
1
1
1
1
1
1
1
1
1
1
1
1
1
1
1
1
1
1
1
1
1
1
1
1
1
1
1
