# vtk DataFile Version 3.0
Molecular dynamics particles
ASCII
DATASET POLYDATA
POINTS 125 double
0.171325 0.171325 0.171325
0.185639 0.185639 1.48654
0.185311 0.185311 3
0.185639 0.185639 4.51346
0.171325 0.171325 5.82868
0.185639 1.48654 0.185639
0.20228 1.4856 1.4856
0.201975 1.48579 3
0.20228 1.4856 4.5144
0.185639 1.48654 5.81436
0.185311 3 0.185311
0.201975 3 1.48579
0.2017 3 3
0.201975 3 4.51421
0.185311 3 5.81469
0.185639 4.51346 0.185639
0.20228 4.5144 1.4856
0.201975 4.51421 3
0.20228 4.5144 4.5144
0.185639 4.51346 5.81436
0.171325 5.82868 0.171325
0.185639 5.81436 1.48654
0.185311 5.81469 3
0.185639 5.81436 4.51346
0.171325 5.82868 5.82868
1.48654 0.185639 0.185639
1.4856 0.20228 1.4856
1.48579 0.201975 3
1.4856 0.20228 4.5144
1.48654 0.185639 5.81436
1.4856 1.4856 0.20228
1.48463 1.48463 1.48463
1.48488 1.48488 3
1.48463 1.48463 4.51537
1.4856 1.4856 5.79772
1.48579 3 0.201975
1.48488 3 1.48488
1.48513 3 3
1.48488 3 4.51512
1.48579 3 5.79802
1.4856 4.5144 0.20228
1.48463 4.51537 1.48463
1.48488 4.51512 3
1.48463 4.51537 4.51537
1.4856 4.5144 5.79772
1.48654 5.81436 0.185639
1.4856 5.79772 1.4856
1.48579 5.79802 3
1.4856 5.79772 4.5144
1.48654 5.81436 5.81436
3 0.185311 0.185311
3 0.201975 1.48579
3 0.2017 3
3 0.201975 4.51421
3 0.185311 5.81469
3 1.48579 0.201975
3 1.48488 1.48488
3 1.48513 3
3 1.48488 4.51512
3 1.48579 5.79802
3 3 0.2017
3 3 1.48513
3 3 3
3 3 4.51487
3 3 5.7983
3 4.51421 0.201975
3 4.51512 1.48488
3 4.51487 3
3 4.51512 4.51512
3 4.51421 5.79802
3 5.81469 0.185311
3 5.79802 1.48579
3 5.7983 3
3 5.79802 4.51421
3 5.81469 5.81469
4.51346 0.185639 0.185639
4.5144 0.20228 1.4856
4.51421 0.201975 3
4.5144 0.20228 4.5144
4.51346 0.185639 5.81436
4.5144 1.4856 0.20228
4.51537 1.48463 1.48463
4.51512 1.48488 3
4.51537 1.48463 4.51537
4.5144 1.4856 5.79772
4.51421 3 0.201975
4.51512 3 1.48488
4.51487 3 3
4.51512 3 4.51512
4.51421 3 5.79802
4.5144 4.5144 0.20228
4.51537 4.51537 1.48463
4.51512 4.51512 3
4.51537 4.51537 4.51537
4.5144 4.5144 5.79772
4.51346 5.81436 0.185639
4.5144 5.79772 1.4856
4.51421 5.79802 3
4.5144 5.79772 4.5144
4.51346 5.81436 5.81436
5.82868 0.171325 0.171325
5.81436 0.185639 1.48654
5.81469 0.185311 3
5.81436 0.185639 4.51346
5.82868 0.171325 5.82868
5.81436 1.48654 0.185639
5.79772 1.4856 1.4856
5.79802 1.48579 3
5.79772 1.4856 4.5144
5.81436 1.48654 5.81436
5.81469 3 0.185311
5.79802 3 1.48579
5.7983 3 3
5.79802 3 4.51421
5.81469 3 5.81469
5.81436 4.51346 0.185639
5.79772 4.5144 1.4856
5.79802 4.51421 3
5.79772 4.5144 4.5144
5.81436 4.51346 5.81436
5.82868 5.82868 0.171325
5.81436 5.81436 1.48654
5.81469 5.81469 3
5.81436 5.81436 4.51346
5.82868 5.82868 5.82868

VERTICES 125 250
1 0
1 1
1 2
1 3
1 4
1 5
1 6
1 7
1 8
1 9
1 10
1 11
1 12
1 13
1 14
1 15
1 16
1 17
1 18
1 19
1 20
1 21
1 22
1 23
1 24
1 25
1 26
1 27
1 28
1 29
1 30
1 31
1 32
1 33
1 34
1 35
1 36
1 37
1 38
1 39
1 40
1 41
1 42
1 43
1 44
1 45
1 46
1 47
1 48
1 49
1 50
1 51
1 52
1 53
1 54
1 55
1 56
1 57
1 58
1 59
1 60
1 61
1 62
1 63
1 64
1 65
1 66
1 67
1 68
1 69
1 70
1 71
1 72
1 73
1 74
1 75
1 76
1 77
1 78
1 79
1 80
1 81
1 82
1 83
1 84
1 85
1 86
1 87
1 88
1 89
1 90
1 91
1 92
1 93
1 94
1 95
1 96
1 97
1 98
1 99
1 100
1 101
1 102
1 103
1 104
1 105
1 106
1 107
1 108
1 109
1 110
1 111
1 112
1 113
1 114
1 115
1 116
1 117
1 118
1 119
1 120
1 121
1 122
1 123
1 124

POINT_DATA 125
SCALARS speed double 1
LOOKUP_TABLE default
1.42995
1.2754
1.25686
1.2754
1.42995
1.2754
1.0019
0.980824
1.0019
1.2754
1.25686
0.980824
0.960381
0.980824
1.25686
1.2754
1.0019
0.980824
1.0019
1.2754
1.42995
1.2754
1.25686
1.2754
1.42995
1.2754
1.0019
0.980824
1.0019
1.2754
1.0019
0.300624
0.241435
0.300624
1.0019
0.980824
0.241435
0.167862
0.241435
0.980824
1.0019
0.300624
0.241435
0.300624
1.0019
1.2754
1.0019
0.980824
1.0019
1.2754
1.25686
0.980824
0.960381
0.980824
1.25686
0.980824
0.241435
0.167862
0.241435
0.980824
0.960381
0.167862
1.39667e-14
0.167862
0.960381
0.980824
0.241435
0.167862
0.241435
0.980824
1.25686
0.980824
0.960381
0.980824
1.25686
1.2754
1.0019
0.980824
1.0019
1.2754
1.0019
0.300624
0.241435
0.300624
1.0019
0.980824
0.241435
0.167862
0.241435
0.980824
1.0019
0.300624
0.241435
0.300624
1.0019
1.2754
1.0019
0.980824
1.0019
1.2754
1.42995
1.2754
1.25686
1.2754
1.42995
1.2754
1.0019
0.980824
1.0019
1.2754
1.25686
0.980824
0.960381
0.980824
1.25686
1.2754
1.0019
0.980824
1.0019
1.2754
1.42995
1.2754
1.25686
1.2754
1.42995

SCALARS mass double 1
LOOKUP_TABLE default
1
1
1
1
1
1
1
1
1
1
1
1
1
1
1
1
1
1
1
1
1
1
1
1
1
1
1
1
1
1
1
1
1
1
1
1
1
1
1
1
1
1
1
1
1
1
1
1
1
1
1
1
1
1
1
1
1
1
1
1
1
1
1
1
1
1
1
1
1
1
1
1
1
1
1
1
1
1
1
1
1
1
1
1
1
1
1
1
1
1
1
1
1
1
1
1
1
1
1
1
1
1
1
1
1
1
1
1
1
1
1
1
1
1
1
1
1
1
1
1
1
1
1
1
1
