# vtk DataFile Version 3.0
Molecular dynamics particles
ASCII
DATASET POLYDATA
POINTS 125 double
0.0157113 0.0157113 0.0157113
0.0169919 0.0169919 1.50017
0.017039 0.017039 3
0.0169919 0.0169919 4.49983
0.0157113 0.0157113 5.98429
0.0169919 1.50017 0.0169919
0.0184955 1.50025 1.50025
0.0185581 1.50026 3
0.0184955 1.50025 4.49975
0.0169919 1.50017 5.98301
0.017039 3 0.017039
0.0185581 3 1.50026
0.0186235 3 3
0.0185581 3 4.49974
0.017039 3 5.98296
0.0169919 4.49983 0.0169919
0.0184955 4.49975 1.50025
0.0185581 4.49974 3
0.0184955 4.49975 4.49975
0.0169919 4.49983 5.98301
0.0157113 5.98429 0.0157113
0.0169919 5.98301 1.50017
0.017039 5.98296 3
0.0169919 5.98301 4.49983
0.0157113 5.98429 5.98429
1.50017 0.0169919 0.0169919
1.50025 0.0184955 1.50025
1.50026 0.0185581 3
1.50025 0.0184955 4.49975
1.50017 0.0169919 5.98301
1.50025 1.50025 0.0184955
1.50035 1.50035 1.50035
1.50037 1.50037 3
1.50035 1.50035 4.49965
1.50025 1.50025 5.9815
1.50026 3 0.0185581
1.50037 3 1.50037
1.50039 3 3
1.50037 3 4.49963
1.50026 3 5.98144
1.50025 4.49975 0.0184955
1.50035 4.49965 1.50035
1.50037 4.49963 3
1.50035 4.49965 4.49965
1.50025 4.49975 5.9815
1.50017 5.98301 0.0169919
1.50025 5.9815 1.50025
1.50026 5.98144 3
1.50025 5.9815 4.49975
1.50017 5.98301 5.98301
3 0.017039 0.017039
3 0.0185581 1.50026
3 0.0186235 3
3 0.0185581 4.49974
3 0.017039 5.98296
3 1.50026 0.0185581
3 1.50037 1.50037
3 1.50039 3
3 1.50037 4.49963
3 1.50026 5.98144
3 3 0.0186235
3 3 1.50039
3 3 3
3 3 4.49961
3 3 5.98138
3 4.49974 0.0185581
3 4.49963 1.50037
3 4.49961 3
3 4.49963 4.49963
3 4.49974 5.98144
3 5.98296 0.017039
3 5.98144 1.50026
3 5.98138 3
3 5.98144 4.49974
3 5.98296 5.98296
4.49983 0.0169919 0.0169919
4.49975 0.0184955 1.50025
4.49974 0.0185581 3
4.49975 0.0184955 4.49975
4.49983 0.0169919 5.98301
4.49975 1.50025 0.0184955
4.49965 1.50035 1.50035
4.49963 1.50037 3
4.49965 1.50035 4.49965
4.49975 1.50025 5.9815
4.49974 3 0.0185581
4.49963 3 1.50037
4.49961 3 3
4.49963 3 4.49963
4.49974 3 5.98144
4.49975 4.49975 0.0184955
4.49965 4.49965 1.50035
4.49963 4.49963 3
4.49965 4.49965 4.49965
4.49975 4.49975 5.9815
4.49983 5.98301 0.0169919
4.49975 5.9815 1.50025
4.49974 5.98144 3
4.49975 5.9815 4.49975
4.49983 5.98301 5.98301
5.98429 0.0157113 0.0157113
5.98301 0.0169919 1.50017
5.98296 0.017039 3
5.98301 0.0169919 4.49983
5.98429 0.0157113 5.98429
5.98301 1.50017 0.0169919
5.9815 1.50025 1.50025
5.98144 1.50026 3
5.9815 1.50025 4.49975
5.98301 1.50017 5.98301
5.98296 3 0.017039
5.98144 3 1.50026
5.98138 3 3
5.98144 3 4.49974
5.98296 3 5.98296
5.98301 4.49983 0.0169919
5.9815 4.49975 1.50025
5.98144 4.49974 3
5.9815 4.49975 4.49975
5.98301 4.49983 5.98301
5.98429 5.98429 0.0157113
5.98301 5.98301 1.50017
5.98296 5.98296 3
5.98301 5.98301 4.49983
5.98429 5.98429 5.98429

VERTICES 125 250
1 0
1 1
1 2
1 3
1 4
1 5
1 6
1 7
1 8
1 9
1 10
1 11
1 12
1 13
1 14
1 15
1 16
1 17
1 18
1 19
1 20
1 21
1 22
1 23
1 24
1 25
1 26
1 27
1 28
1 29
1 30
1 31
1 32
1 33
1 34
1 35
1 36
1 37
1 38
1 39
1 40
1 41
1 42
1 43
1 44
1 45
1 46
1 47
1 48
1 49
1 50
1 51
1 52
1 53
1 54
1 55
1 56
1 57
1 58
1 59
1 60
1 61
1 62
1 63
1 64
1 65
1 66
1 67
1 68
1 69
1 70
1 71
1 72
1 73
1 74
1 75
1 76
1 77
1 78
1 79
1 80
1 81
1 82
1 83
1 84
1 85
1 86
1 87
1 88
1 89
1 90
1 91
1 92
1 93
1 94
1 95
1 96
1 97
1 98
1 99
1 100
1 101
1 102
1 103
1 104
1 105
1 106
1 107
1 108
1 109
1 110
1 111
1 112
1 113
1 114
1 115
1 116
1 117
1 118
1 119
1 120
1 121
1 122
1 123
1 124

POINT_DATA 125
SCALARS speed double 1
LOOKUP_TABLE default
0.366617
0.323799
0.324581
0.323799
0.366617
0.323799
0.249259
0.250003
0.249259
0.323799
0.324581
0.250003
0.250783
0.250003
0.324581
0.323799
0.249259
0.250003
0.249259
0.323799
0.366617
0.323799
0.324581
0.323799
0.366617
0.323799
0.249259
0.250003
0.249259
0.323799
0.249259
0.00403596
0.00361611
0.00403596
0.249259
0.250003
0.00361611
0.0028007
0.00361611
0.250003
0.249259
0.00403596
0.00361611
0.00403596
0.249259
0.323799
0.249259
0.250003
0.249259
0.323799
0.324581
0.250003
0.250783
0.250003
0.324581
0.250003
0.00361611
0.0028007
0.00361611
0.250003
0.250783
0.0028007
2.38875e-15
0.0028007
0.250783
0.250003
0.00361611
0.0028007
0.00361611
0.250003
0.324581
0.250003
0.250783
0.250003
0.324581
0.323799
0.249259
0.250003
0.249259
0.323799
0.249259
0.00403596
0.00361611
0.00403596
0.249259
0.250003
0.00361611
0.0028007
0.00361611
0.250003
0.249259
0.00403596
0.00361611
0.00403596
0.249259
0.323799
0.249259
0.250003
0.249259
0.323799
0.366617
0.323799
0.324581
0.323799
0.366617
0.323799
0.249259
0.250003
0.249259
0.323799
0.324581
0.250003
0.250783
0.250003
0.324581
0.323799
0.249259
0.250003
0.249259
0.323799
0.366617
0.323799
0.324581
0.323799
0.366617

SCALARS mass double 1
LOOKUP_TABLE default
1
1
1
1
1
1
1
1
1
1
1
1
1
1
1
1
1
1
1
1
1
1
1
1
1
1
1
1
1
1
1
1
1
1
1
1
1
1
1
1
1
1
1
1
1
1
1
1
1
1
1
1
1
1
1
1
1
1
1
1
1
1
1
1
1
1
1
1
1
1
1
1
1
1
1
1
1
1
1
1
1
1
1
1
1
1
1
1
1
1
1
1
1
1
1
1
1
1
1
1
1
1
1
1
1
1
1
1
1
1
1
1
1
1
1
1
1
1
1
1
1
1
1
1
1
