# vtk DataFile Version 3.0
Molecular dynamics particles
ASCII
DATASET POLYDATA
POINTS 125 double
0.427054 0.427054 0.427054
0.437313 0.437313 1.51521
0.431027 0.431027 3
0.437313 0.437313 4.48479
0.427054 0.427054 5.57295
0.437313 1.51521 0.437313
0.455932 1.55356 1.55356
0.446672 1.54599 3
0.455932 1.55356 4.44644
0.437313 1.51521 5.56269
0.431027 3 0.431027
0.446672 3 1.54599
0.439094 3 3
0.446672 3 4.45401
0.431027 3 5.56897
0.437313 4.48479 0.437313
0.455932 4.44644 1.55356
0.446672 4.45401 3
0.455932 4.44644 4.44644
0.437313 4.48479 5.56269
0.427054 5.57295 0.427054
0.437313 5.56269 1.51521
0.431027 5.56897 3
0.437313 5.56269 4.48479
0.427054 5.57295 5.57295
1.51521 0.437313 0.437313
1.55356 0.455932 1.55356
1.54599 0.446672 3
1.55356 0.455932 4.44644
1.51521 0.437313 5.56269
1.55356 1.55356 0.455932
1.60054 1.60054 1.60054
1.59054 1.59054 3
1.60054 1.60054 4.39946
1.55356 1.55356 5.54407
1.54599 3 0.446672
1.59054 3 1.59054
1.58187 3 3
1.59054 3 4.40946
1.54599 3 5.55333
1.55356 4.44644 0.455932
1.60054 4.39946 1.60054
1.59054 4.40946 3
1.60054 4.39946 4.39946
1.55356 4.44644 5.54407
1.51521 5.56269 0.437313
1.55356 5.54407 1.55356
1.54599 5.55333 3
1.55356 5.54407 4.44644
1.51521 5.56269 5.56269
3 0.431027 0.431027
3 0.446672 1.54599
3 0.439094 3
3 0.446672 4.45401
3 0.431027 5.56897
3 1.54599 0.446672
3 1.59054 1.59054
3 1.58187 3
3 1.59054 4.40946
3 1.54599 5.55333
3 3 0.439094
3 3 1.58187
3 3 3
3 3 4.41813
3 3 5.56091
3 4.45401 0.446672
3 4.40946 1.59054
3 4.41813 3
3 4.40946 4.40946
3 4.45401 5.55333
3 5.56897 0.431027
3 5.55333 1.54599
3 5.56091 3
3 5.55333 4.45401
3 5.56897 5.56897
4.48479 0.437313 0.437313
4.44644 0.455932 1.55356
4.45401 0.446672 3
4.44644 0.455932 4.44644
4.48479 0.437313 5.56269
4.44644 1.55356 0.455932
4.39946 1.60054 1.60054
4.40946 1.59054 3
4.39946 1.60054 4.39946
4.44644 1.55356 5.54407
4.45401 3 0.446672
4.40946 3 1.59054
4.41813 3 3
4.40946 3 4.40946
4.45401 3 5.55333
4.44644 4.44644 0.455932
4.39946 4.39946 1.60054
4.40946 4.40946 3
4.39946 4.39946 4.39946
4.44644 4.44644 5.54407
4.48479 5.56269 0.437313
4.44644 5.54407 1.55356
4.45401 5.55333 3
4.44644 5.54407 4.44644
4.48479 5.56269 5.56269
5.57295 0.427054 0.427054
5.56269 0.437313 1.51521
5.56897 0.431027 3
5.56269 0.437313 4.48479
5.57295 0.427054 5.57295
5.56269 1.51521 0.437313
5.54407 1.55356 1.55356
5.55333 1.54599 3
5.54407 1.55356 4.44644
5.56269 1.51521 5.56269
5.56897 3 0.431027
5.55333 3 1.54599
5.56091 3 3
5.55333 3 4.45401
5.56897 3 5.56897
5.56269 4.48479 0.437313
5.54407 4.44644 1.55356
5.55333 4.45401 3
5.54407 4.44644 4.44644
5.56269 4.48479 5.56269
5.57295 5.57295 0.427054
5.56269 5.56269 1.51521
5.56897 5.56897 3
5.56269 5.56269 4.48479
5.57295 5.57295 5.57295

VERTICES 125 250
1 0
1 1
1 2
1 3
1 4
1 5
1 6
1 7
1 8
1 9
1 10
1 11
1 12
1 13
1 14
1 15
1 16
1 17
1 18
1 19
1 20
1 21
1 22
1 23
1 24
1 25
1 26
1 27
1 28
1 29
1 30
1 31
1 32
1 33
1 34
1 35
1 36
1 37
1 38
1 39
1 40
1 41
1 42
1 43
1 44
1 45
1 46
1 47
1 48
1 49
1 50
1 51
1 52
1 53
1 54
1 55
1 56
1 57
1 58
1 59
1 60
1 61
1 62
1 63
1 64
1 65
1 66
1 67
1 68
1 69
1 70
1 71
1 72
1 73
1 74
1 75
1 76
1 77
1 78
1 79
1 80
1 81
1 82
1 83
1 84
1 85
1 86
1 87
1 88
1 89
1 90
1 91
1 92
1 93
1 94
1 95
1 96
1 97
1 98
1 99
1 100
1 101
1 102
1 103
1 104
1 105
1 106
1 107
1 108
1 109
1 110
1 111
1 112
1 113
1 114
1 115
1 116
1 117
1 118
1 119
1 120
1 121
1 122
1 123
1 124

POINT_DATA 125
SCALARS speed double 1
LOOKUP_TABLE default
0.515735
1.35502
0.318592
1.35502
0.515735
1.35502
2.08062
1.39077
2.08062
1.35502
0.318592
1.39077
0.116471
1.39077
0.318592
1.35502
2.08062
1.39077
2.08062
1.35502
0.515735
1.35502
0.318592
1.35502
0.515735
1.35502
2.08062
1.39077
2.08062
1.35502
2.08062
2.79278
2.15946
2.79278
2.08062
1.39077
2.15946
1.44976
2.15946
1.39077
2.08062
2.79278
2.15946
2.79278
2.08062
1.35502
2.08062
1.39077
2.08062
1.35502
0.318592
1.39077
0.116471
1.39077
0.318592
1.39077
2.15946
1.44976
2.15946
1.39077
0.116471
1.44976
9.68469e-15
1.44976
0.116471
1.39077
2.15946
1.44976
2.15946
1.39077
0.318592
1.39077
0.116471
1.39077
0.318592
1.35502
2.08062
1.39077
2.08062
1.35502
2.08062
2.79278
2.15946
2.79278
2.08062
1.39077
2.15946
1.44976
2.15946
1.39077
2.08062
2.79278
2.15946
2.79278
2.08062
1.35502
2.08062
1.39077
2.08062
1.35502
0.515735
1.35502
0.318592
1.35502
0.515735
1.35502
2.08062
1.39077
2.08062
1.35502
0.318592
1.39077
0.116471
1.39077
0.318592
1.35502
2.08062
1.39077
2.08062
1.35502
0.515735
1.35502
0.318592
1.35502
0.515735

SCALARS mass double 1
LOOKUP_TABLE default
1
1
1
1
1
1
1
1
1
1
1
1
1
1
1
1
1
1
1
1
1
1
1
1
1
1
1
1
1
1
1
1
1
1
1
1
1
1
1
1
1
1
1
1
1
1
1
1
1
1
1
1
1
1
1
1
1
1
1
1
1
1
1
1
1
1
1
1
1
1
1
1
1
1
1
1
1
1
1
1
1
1
1
1
1
1
1
1
1
1
1
1
1
1
1
1
1
1
1
1
1
1
1
1
1
1
1
1
1
1
1
1
1
1
1
1
1
1
1
1
1
1
1
1
1
