# vtk DataFile Version 3.0
Molecular dynamics particles
ASCII
DATASET POLYDATA
POINTS 125 double
0.0342115 0.0342115 0.0342115
0.0370081 0.0370081 1.50001
0.0370946 0.0370946 3
0.0370081 0.0370081 4.49999
0.0342115 0.0342115 5.96579
0.0370081 1.50001 0.0370081
0.040289 1.50014 1.50014
0.0404064 1.50016 3
0.040289 1.50014 4.49986
0.0370081 1.50001 5.96299
0.0370946 3 0.0370946
0.0404064 3 1.50016
0.0405297 3 3
0.0404064 3 4.49984
0.0370946 3 5.96291
0.0370081 4.49999 0.0370081
0.040289 4.49986 1.50014
0.0404064 4.49984 3
0.040289 4.49986 4.49986
0.0370081 4.49999 5.96299
0.0342115 5.96579 0.0342115
0.0370081 5.96299 1.50001
0.0370946 5.96291 3
0.0370081 5.96299 4.49999
0.0342115 5.96579 5.96579
1.50001 0.0370081 0.0370081
1.50014 0.040289 1.50014
1.50016 0.0404064 3
1.50014 0.040289 4.49986
1.50001 0.0370081 5.96299
1.50014 1.50014 0.040289
1.50031 1.50031 1.50031
1.50034 1.50034 3
1.50031 1.50031 4.49969
1.50014 1.50014 5.95971
1.50016 3 0.0404064
1.50034 3 1.50034
1.50038 3 3
1.50034 3 4.49966
1.50016 3 5.95959
1.50014 4.49986 0.040289
1.50031 4.49969 1.50031
1.50034 4.49966 3
1.50031 4.49969 4.49969
1.50014 4.49986 5.95971
1.50001 5.96299 0.0370081
1.50014 5.95971 1.50014
1.50016 5.95959 3
1.50014 5.95971 4.49986
1.50001 5.96299 5.96299
3 0.0370946 0.0370946
3 0.0404064 1.50016
3 0.0405297 3
3 0.0404064 4.49984
3 0.0370946 5.96291
3 1.50016 0.0404064
3 1.50034 1.50034
3 1.50038 3
3 1.50034 4.49966
3 1.50016 5.95959
3 3 0.0405297
3 3 1.50038
3 3 3
3 3 4.49962
3 3 5.95947
3 4.49984 0.0404064
3 4.49966 1.50034
3 4.49962 3
3 4.49966 4.49966
3 4.49984 5.95959
3 5.96291 0.0370946
3 5.95959 1.50016
3 5.95947 3
3 5.95959 4.49984
3 5.96291 5.96291
4.49999 0.0370081 0.0370081
4.49986 0.040289 1.50014
4.49984 0.0404064 3
4.49986 0.040289 4.49986
4.49999 0.0370081 5.96299
4.49986 1.50014 0.040289
4.49969 1.50031 1.50031
4.49966 1.50034 3
4.49969 1.50031 4.49969
4.49986 1.50014 5.95971
4.49984 3 0.0404064
4.49966 3 1.50034
4.49962 3 3
4.49966 3 4.49966
4.49984 3 5.95959
4.49986 4.49986 0.040289
4.49969 4.49969 1.50031
4.49966 4.49966 3
4.49969 4.49969 4.49969
4.49986 4.49986 5.95971
4.49999 5.96299 0.0370081
4.49986 5.95971 1.50014
4.49984 5.95959 3
4.49986 5.95971 4.49986
4.49999 5.96299 5.96299
5.96579 0.0342115 0.0342115
5.96299 0.0370081 1.50001
5.96291 0.0370946 3
5.96299 0.0370081 4.49999
5.96579 0.0342115 5.96579
5.96299 1.50001 0.0370081
5.95971 1.50014 1.50014
5.95959 1.50016 3
5.95971 1.50014 4.49986
5.96299 1.50001 5.96299
5.96291 3 0.0370946
5.95959 3 1.50016
5.95947 3 3
5.95959 3 4.49984
5.96291 3 5.96291
5.96299 4.49999 0.0370081
5.95971 4.49986 1.50014
5.95959 4.49984 3
5.95971 4.49986 4.49986
5.96299 4.49999 5.96299
5.96579 5.96579 0.0342115
5.96299 5.96299 1.50001
5.96291 5.96291 3
5.96299 5.96299 4.49999
5.96579 5.96579 5.96579

VERTICES 125 250
1 0
1 1
1 2
1 3
1 4
1 5
1 6
1 7
1 8
1 9
1 10
1 11
1 12
1 13
1 14
1 15
1 16
1 17
1 18
1 19
1 20
1 21
1 22
1 23
1 24
1 25
1 26
1 27
1 28
1 29
1 30
1 31
1 32
1 33
1 34
1 35
1 36
1 37
1 38
1 39
1 40
1 41
1 42
1 43
1 44
1 45
1 46
1 47
1 48
1 49
1 50
1 51
1 52
1 53
1 54
1 55
1 56
1 57
1 58
1 59
1 60
1 61
1 62
1 63
1 64
1 65
1 66
1 67
1 68
1 69
1 70
1 71
1 72
1 73
1 74
1 75
1 76
1 77
1 78
1 79
1 80
1 81
1 82
1 83
1 84
1 85
1 86
1 87
1 88
1 89
1 90
1 91
1 92
1 93
1 94
1 95
1 96
1 97
1 98
1 99
1 100
1 101
1 102
1 103
1 104
1 105
1 106
1 107
1 108
1 109
1 110
1 111
1 112
1 113
1 114
1 115
1 116
1 117
1 118
1 119
1 120
1 121
1 122
1 123
1 124

POINT_DATA 125
SCALARS speed double 1
LOOKUP_TABLE default
0.551175
0.487062
0.487758
0.487062
0.551175
0.487062
0.375099
0.375811
0.375099
0.487062
0.487758
0.375811
0.376579
0.375811
0.487758
0.487062
0.375099
0.375811
0.375099
0.487062
0.551175
0.487062
0.487758
0.487062
0.551175
0.487062
0.375099
0.375811
0.375099
0.487062
0.375099
0.00848898
0.00651907
0.00848898
0.375099
0.375811
0.00651907
0.00429654
0.00651907
0.375811
0.375099
0.00848898
0.00651907
0.00848898
0.375099
0.487062
0.375099
0.375811
0.375099
0.487062
0.487758
0.375811
0.376579
0.375811
0.487758
0.375811
0.00651907
0.00429654
0.00651907
0.375811
0.376579
0.00429654
1.23912e-16
0.00429654
0.376579
0.375811
0.00651907
0.00429654
0.00651907
0.375811
0.487758
0.375811
0.376579
0.375811
0.487758
0.487062
0.375099
0.375811
0.375099
0.487062
0.375099
0.00848898
0.00651907
0.00848898
0.375099
0.375811
0.00651907
0.00429654
0.00651907
0.375811
0.375099
0.00848898
0.00651907
0.00848898
0.375099
0.487062
0.375099
0.375811
0.375099
0.487062
0.551175
0.487062
0.487758
0.487062
0.551175
0.487062
0.375099
0.375811
0.375099
0.487062
0.487758
0.375811
0.376579
0.375811
0.487758
0.487062
0.375099
0.375811
0.375099
0.487062
0.551175
0.487062
0.487758
0.487062
0.551175

SCALARS mass double 1
LOOKUP_TABLE default
1
1
1
1
1
1
1
1
1
1
1
1
1
1
1
1
1
1
1
1
1
1
1
1
1
1
1
1
1
1
1
1
1
1
1
1
1
1
1
1
1
1
1
1
1
1
1
1
1
1
1
1
1
1
1
1
1
1
1
1
1
1
1
1
1
1
1
1
1
1
1
1
1
1
1
1
1
1
1
1
1
1
1
1
1
1
1
1
1
1
1
1
1
1
1
1
1
1
1
1
1
1
1
1
1
1
1
1
1
1
1
1
1
1
1
1
1
1
1
1
1
1
1
1
1
