# vtk DataFile Version 3.0
Molecular dynamics particles
ASCII
DATASET POLYDATA
POINTS 125 double
0.133303 0.133303 0.133303
0.144381 0.144381 1.49243
0.144316 0.144316 3
0.144381 0.144381 4.50757
0.133303 0.133303 5.8667
0.144381 1.49243 0.144381
0.157302 1.49203 1.49203
0.157289 1.49214 3
0.157302 1.49203 4.50797
0.144381 1.49243 5.85562
0.144316 3 0.144316
0.157289 3 1.49214
0.157296 3 3
0.157289 3 4.50786
0.144316 3 5.85568
0.144381 4.50757 0.144381
0.157302 4.50797 1.49203
0.157289 4.50786 3
0.157302 4.50797 4.50797
0.144381 4.50757 5.85562
0.133303 5.8667 0.133303
0.144381 5.85562 1.49243
0.144316 5.85568 3
0.144381 5.85562 4.50757
0.133303 5.8667 5.8667
1.49243 0.144381 0.144381
1.49203 0.157302 1.49203
1.49214 0.157289 3
1.49203 0.157302 4.50797
1.49243 0.144381 5.85562
1.49203 1.49203 0.157302
1.49166 1.49166 1.49166
1.49181 1.49181 3
1.49166 1.49166 4.50834
1.49203 1.49203 5.8427
1.49214 3 0.157289
1.49181 3 1.49181
1.49196 3 3
1.49181 3 4.50819
1.49214 3 5.84271
1.49203 4.50797 0.157302
1.49166 4.50834 1.49166
1.49181 4.50819 3
1.49166 4.50834 4.50834
1.49203 4.50797 5.8427
1.49243 5.85562 0.144381
1.49203 5.8427 1.49203
1.49214 5.84271 3
1.49203 5.8427 4.50797
1.49243 5.85562 5.85562
3 0.144316 0.144316
3 0.157289 1.49214
3 0.157296 3
3 0.157289 4.50786
3 0.144316 5.85568
3 1.49214 0.157289
3 1.49181 1.49181
3 1.49196 3
3 1.49181 4.50819
3 1.49214 5.84271
3 3 0.157296
3 3 1.49196
3 3 3
3 3 4.50804
3 3 5.8427
3 4.50786 0.157289
3 4.50819 1.49181
3 4.50804 3
3 4.50819 4.50819
3 4.50786 5.84271
3 5.85568 0.144316
3 5.84271 1.49214
3 5.8427 3
3 5.84271 4.50786
3 5.85568 5.85568
4.50757 0.144381 0.144381
4.50797 0.157302 1.49203
4.50786 0.157289 3
4.50797 0.157302 4.50797
4.50757 0.144381 5.85562
4.50797 1.49203 0.157302
4.50834 1.49166 1.49166
4.50819 1.49181 3
4.50834 1.49166 4.50834
4.50797 1.49203 5.8427
4.50786 3 0.157289
4.50819 3 1.49181
4.50804 3 3
4.50819 3 4.50819
4.50786 3 5.84271
4.50797 4.50797 0.157302
4.50834 4.50834 1.49166
4.50819 4.50819 3
4.50834 4.50834 4.50834
4.50797 4.50797 5.8427
4.50757 5.85562 0.144381
4.50797 5.8427 1.49203
4.50786 5.84271 3
4.50797 5.8427 4.50797
4.50757 5.85562 5.85562
5.8667 0.133303 0.133303
5.85562 0.144381 1.49243
5.85568 0.144316 3
5.85562 0.144381 4.50757
5.8667 0.133303 5.8667
5.85562 1.49243 0.144381
5.8427 1.49203 1.49203
5.84271 1.49214 3
5.8427 1.49203 4.50797
5.85562 1.49243 5.85562
5.85568 3 0.144316
5.84271 3 1.49214
5.8427 3 3
5.84271 3 4.50786
5.85568 3 5.85568
5.85562 4.50757 0.144381
5.8427 4.50797 1.49203
5.84271 4.50786 3
5.8427 4.50797 4.50797
5.85562 4.50757 5.85562
5.8667 5.8667 0.133303
5.85562 5.85562 1.49243
5.85568 5.85568 3
5.85562 5.85562 4.50757
5.8667 5.8667 5.8667

VERTICES 125 250
1 0
1 1
1 2
1 3
1 4
1 5
1 6
1 7
1 8
1 9
1 10
1 11
1 12
1 13
1 14
1 15
1 16
1 17
1 18
1 19
1 20
1 21
1 22
1 23
1 24
1 25
1 26
1 27
1 28
1 29
1 30
1 31
1 32
1 33
1 34
1 35
1 36
1 37
1 38
1 39
1 40
1 41
1 42
1 43
1 44
1 45
1 46
1 47
1 48
1 49
1 50
1 51
1 52
1 53
1 54
1 55
1 56
1 57
1 58
1 59
1 60
1 61
1 62
1 63
1 64
1 65
1 66
1 67
1 68
1 69
1 70
1 71
1 72
1 73
1 74
1 75
1 76
1 77
1 78
1 79
1 80
1 81
1 82
1 83
1 84
1 85
1 86
1 87
1 88
1 89
1 90
1 91
1 92
1 93
1 94
1 95
1 96
1 97
1 98
1 99
1 100
1 101
1 102
1 103
1 104
1 105
1 106
1 107
1 108
1 109
1 110
1 111
1 112
1 113
1 114
1 115
1 116
1 117
1 118
1 119
1 120
1 121
1 122
1 123
1 124

POINT_DATA 125
SCALARS speed double 1
LOOKUP_TABLE default
1.20956
1.07546
1.06628
1.07546
1.20956
1.07546
0.838462
0.828245
0.838462
1.07546
1.06628
0.828245
0.818317
0.828245
1.06628
1.07546
0.838462
0.828245
0.838462
1.07546
1.20956
1.07546
1.06628
1.07546
1.20956
1.07546
0.838462
0.828245
0.838462
1.07546
0.838462
0.192042
0.154914
0.192042
0.838462
0.828245
0.154914
0.108171
0.154914
0.828245
0.838462
0.192042
0.154914
0.192042
0.838462
1.07546
0.838462
0.828245
0.838462
1.07546
1.06628
0.828245
0.818317
0.828245
1.06628
0.828245
0.154914
0.108171
0.154914
0.828245
0.818317
0.108171
1.17131e-14
0.108171
0.818317
0.828245
0.154914
0.108171
0.154914
0.828245
1.06628
0.828245
0.818317
0.828245
1.06628
1.07546
0.838462
0.828245
0.838462
1.07546
0.838462
0.192042
0.154914
0.192042
0.838462
0.828245
0.154914
0.108171
0.154914
0.828245
0.838462
0.192042
0.154914
0.192042
0.838462
1.07546
0.838462
0.828245
0.838462
1.07546
1.20956
1.07546
1.06628
1.07546
1.20956
1.07546
0.838462
0.828245
0.838462
1.07546
1.06628
0.828245
0.818317
0.828245
1.06628
1.07546
0.838462
0.828245
0.838462
1.07546
1.20956
1.07546
1.06628
1.07546
1.20956

SCALARS mass double 1
LOOKUP_TABLE default
1
1
1
1
1
1
1
1
1
1
1
1
1
1
1
1
1
1
1
1
1
1
1
1
1
1
1
1
1
1
1
1
1
1
1
1
1
1
1
1
1
1
1
1
1
1
1
1
1
1
1
1
1
1
1
1
1
1
1
1
1
1
1
1
1
1
1
1
1
1
1
1
1
1
1
1
1
1
1
1
1
1
1
1
1
1
1
1
1
1
1
1
1
1
1
1
1
1
1
1
1
1
1
1
1
1
1
1
1
1
1
1
1
1
1
1
1
1
1
1
1
1
1
1
1
