# vtk DataFile Version 3.0
Molecular dynamics particles
ASCII
DATASET POLYDATA
POINTS 125 double
0.435671 0.435671 0.435671
0.445343 0.445343 1.45648
0.440073 0.440073 3
0.445343 0.445343 4.54352
0.435671 0.435671 5.56433
0.445343 1.45648 0.445343
0.457368 1.48399 1.48399
0.451122 1.48099 3
0.457368 1.48399 4.51601
0.445343 1.45648 5.55466
0.440073 3 0.440073
0.451122 3 1.48099
0.445687 3 3
0.451122 3 4.51901
0.440073 3 5.55993
0.445343 4.54352 0.445343
0.457368 4.51601 1.48399
0.451122 4.51901 3
0.457368 4.51601 4.51601
0.445343 4.54352 5.55466
0.435671 5.56433 0.435671
0.445343 5.55466 1.45648
0.440073 5.55993 3
0.445343 5.55466 4.54352
0.435671 5.56433 5.56433
1.45648 0.445343 0.445343
1.48399 0.457368 1.48399
1.48099 0.451122 3
1.48399 0.457368 4.51601
1.45648 0.445343 5.55466
1.48399 1.48399 0.457368
1.52133 1.52133 1.52133
1.51604 1.51604 3
1.52133 1.52133 4.47867
1.48399 1.48399 5.54263
1.48099 3 0.451122
1.51604 3 1.51604
1.51163 3 3
1.51604 3 4.48396
1.48099 3 5.54888
1.48399 4.51601 0.457368
1.52133 4.47867 1.52133
1.51604 4.48396 3
1.52133 4.47867 4.47867
1.48399 4.51601 5.54263
1.45648 5.55466 0.445343
1.48399 5.54263 1.48399
1.48099 5.54888 3
1.48399 5.54263 4.51601
1.45648 5.55466 5.55466
3 0.440073 0.440073
3 0.451122 1.48099
3 0.445687 3
3 0.451122 4.51901
3 0.440073 5.55993
3 1.48099 0.451122
3 1.51604 1.51604
3 1.51163 3
3 1.51604 4.48396
3 1.48099 5.54888
3 3 0.445687
3 3 1.51163
3 3 3
3 3 4.48837
3 3 5.55431
3 4.51901 0.451122
3 4.48396 1.51604
3 4.48837 3
3 4.48396 4.48396
3 4.51901 5.54888
3 5.55993 0.440073
3 5.54888 1.48099
3 5.55431 3
3 5.54888 4.51901
3 5.55993 5.55993
4.54352 0.445343 0.445343
4.51601 0.457368 1.48399
4.51901 0.451122 3
4.51601 0.457368 4.51601
4.54352 0.445343 5.55466
4.51601 1.48399 0.457368
4.47867 1.52133 1.52133
4.48396 1.51604 3
4.47867 1.52133 4.47867
4.51601 1.48399 5.54263
4.51901 3 0.451122
4.48396 3 1.51604
4.48837 3 3
4.48396 3 4.48396
4.51901 3 5.54888
4.51601 4.51601 0.457368
4.47867 4.47867 1.52133
4.48396 4.48396 3
4.47867 4.47867 4.47867
4.51601 4.51601 5.54263
4.54352 5.55466 0.445343
4.51601 5.54263 1.48399
4.51901 5.54888 3
4.51601 5.54263 4.51601
4.54352 5.55466 5.55466
5.56433 0.435671 0.435671
5.55466 0.445343 1.45648
5.55993 0.440073 3
5.55466 0.445343 4.54352
5.56433 0.435671 5.56433
5.55466 1.45648 0.445343
5.54263 1.48399 1.48399
5.54888 1.48099 3
5.54263 1.48399 4.51601
5.55466 1.45648 5.55466
5.55993 3 0.440073
5.54888 3 1.48099
5.55431 3 3
5.54888 3 4.51901
5.55993 3 5.55993
5.55466 4.54352 0.445343
5.54263 4.51601 1.48399
5.54888 4.51901 3
5.54263 4.51601 4.51601
5.55466 4.54352 5.55466
5.56433 5.56433 0.435671
5.55466 5.55466 1.45648
5.55993 5.55993 3
5.55466 5.55466 4.54352
5.56433 5.56433 5.56433

VERTICES 125 250
1 0
1 1
1 2
1 3
1 4
1 5
1 6
1 7
1 8
1 9
1 10
1 11
1 12
1 13
1 14
1 15
1 16
1 17
1 18
1 19
1 20
1 21
1 22
1 23
1 24
1 25
1 26
1 27
1 28
1 29
1 30
1 31
1 32
1 33
1 34
1 35
1 36
1 37
1 38
1 39
1 40
1 41
1 42
1 43
1 44
1 45
1 46
1 47
1 48
1 49
1 50
1 51
1 52
1 53
1 54
1 55
1 56
1 57
1 58
1 59
1 60
1 61
1 62
1 63
1 64
1 65
1 66
1 67
1 68
1 69
1 70
1 71
1 72
1 73
1 74
1 75
1 76
1 77
1 78
1 79
1 80
1 81
1 82
1 83
1 84
1 85
1 86
1 87
1 88
1 89
1 90
1 91
1 92
1 93
1 94
1 95
1 96
1 97
1 98
1 99
1 100
1 101
1 102
1 103
1 104
1 105
1 106
1 107
1 108
1 109
1 110
1 111
1 112
1 113
1 114
1 115
1 116
1 117
1 118
1 119
1 120
1 121
1 122
1 123
1 124

POINT_DATA 125
SCALARS speed double 1
LOOKUP_TABLE default
0.108332
0.922386
0.0774102
0.922386
0.108332
0.922386
1.74404
1.13717
1.74404
0.922386
0.0774102
1.13717
0.0921626
1.13717
0.0774102
0.922386
1.74404
1.13717
1.74404
0.922386
0.108332
0.922386
0.0774102
0.922386
0.108332
0.922386
1.74404
1.13717
1.74404
0.922386
1.74404
2.60802
1.98389
2.60802
1.74404
1.13717
1.98389
1.31009
1.98389
1.13717
1.74404
2.60802
1.98389
2.60802
1.74404
0.922386
1.74404
1.13717
1.74404
0.922386
0.0774102
1.13717
0.0921626
1.13717
0.0774102
1.13717
1.98389
1.31009
1.98389
1.13717
0.0921626
1.31009
7.12938e-15
1.31009
0.0921626
1.13717
1.98389
1.31009
1.98389
1.13717
0.0774102
1.13717
0.0921626
1.13717
0.0774102
0.922386
1.74404
1.13717
1.74404
0.922386
1.74404
2.60802
1.98389
2.60802
1.74404
1.13717
1.98389
1.31009
1.98389
1.13717
1.74404
2.60802
1.98389
2.60802
1.74404
0.922386
1.74404
1.13717
1.74404
0.922386
0.108332
0.922386
0.0774102
0.922386
0.108332
0.922386
1.74404
1.13717
1.74404
0.922386
0.0774102
1.13717
0.0921626
1.13717
0.0774102
0.922386
1.74404
1.13717
1.74404
0.922386
0.108332
0.922386
0.0774102
0.922386
0.108332

SCALARS mass double 1
LOOKUP_TABLE default
1
1
1
1
1
1
1
1
1
1
1
1
1
1
1
1
1
1
1
1
1
1
1
1
1
1
1
1
1
1
1
1
1
1
1
1
1
1
1
1
1
1
1
1
1
1
1
1
1
1
1
1
1
1
1
1
1
1
1
1
1
1
1
1
1
1
1
1
1
1
1
1
1
1
1
1
1
1
1
1
1
1
1
1
1
1
1
1
1
1
1
1
1
1
1
1
1
1
1
1
1
1
1
1
1
1
1
1
1
1
1
1
1
1
1
1
1
1
1
1
1
1
1
1
1
