# vtk DataFile Version 3.0
Molecular dynamics particles
ASCII
DATASET POLYDATA
POINTS 125 double
0.00443615 0.00443615 0.00443615
0.00479708 0.00479708 1.50008
0.00481162 0.00481162 3
0.00479708 0.00479708 4.49992
0.00443615 0.00443615 5.99556
0.00479708 1.50008 0.00479708
0.00522112 1.5001 1.5001
0.00524021 1.50011 3
0.00522112 1.5001 4.4999
0.00479708 1.50008 5.9952
0.00481162 3 0.00481162
0.00524021 3 1.50011
0.00526015 3 3
0.00524021 3 4.49989
0.00481162 3 5.99519
0.00479708 4.49992 0.00479708
0.00522112 4.4999 1.5001
0.00524021 4.49989 3
0.00522112 4.4999 4.4999
0.00479708 4.49992 5.9952
0.00443615 5.99556 0.00443615
0.00479708 5.9952 1.50008
0.00481162 5.99519 3
0.00479708 5.9952 4.49992
0.00443615 5.99556 5.99556
1.50008 0.00479708 0.00479708
1.5001 0.00522112 1.5001
1.50011 0.00524021 3
1.5001 0.00522112 4.4999
1.50008 0.00479708 5.9952
1.5001 1.5001 0.00522112
1.50013 1.50013 1.50013
1.50014 1.50014 3
1.50013 1.50013 4.49987
1.5001 1.5001 5.99478
1.50011 3 0.00524021
1.50014 3 1.50014
1.50014 3 3
1.50014 3 4.49986
1.50011 3 5.99476
1.5001 4.4999 0.00522112
1.50013 4.49987 1.50013
1.50014 4.49986 3
1.50013 4.49987 4.49987
1.5001 4.4999 5.99478
1.50008 5.9952 0.00479708
1.5001 5.99478 1.5001
1.50011 5.99476 3
1.5001 5.99478 4.4999
1.50008 5.9952 5.9952
3 0.00481162 0.00481162
3 0.00524021 1.50011
3 0.00526015 3
3 0.00524021 4.49989
3 0.00481162 5.99519
3 1.50011 0.00524021
3 1.50014 1.50014
3 1.50014 3
3 1.50014 4.49986
3 1.50011 5.99476
3 3 0.00526015
3 3 1.50014
3 3 3
3 3 4.49986
3 3 5.99474
3 4.49989 0.00524021
3 4.49986 1.50014
3 4.49986 3
3 4.49986 4.49986
3 4.49989 5.99476
3 5.99519 0.00481162
3 5.99476 1.50011
3 5.99474 3
3 5.99476 4.49989
3 5.99519 5.99519
4.49992 0.00479708 0.00479708
4.4999 0.00522112 1.5001
4.49989 0.00524021 3
4.4999 0.00522112 4.4999
4.49992 0.00479708 5.9952
4.4999 1.5001 0.00522112
4.49987 1.50013 1.50013
4.49986 1.50014 3
4.49987 1.50013 4.49987
4.4999 1.5001 5.99478
4.49989 3 0.00524021
4.49986 3 1.50014
4.49986 3 3
4.49986 3 4.49986
4.49989 3 5.99476
4.4999 4.4999 0.00522112
4.49987 4.49987 1.50013
4.49986 4.49986 3
4.49987 4.49987 4.49987
4.4999 4.4999 5.99478
4.49992 5.9952 0.00479708
4.4999 5.99478 1.5001
4.49989 5.99476 3
4.4999 5.99478 4.4999
4.49992 5.9952 5.9952
5.99556 0.00443615 0.00443615
5.9952 0.00479708 1.50008
5.99519 0.00481162 3
5.9952 0.00479708 4.49992
5.99556 0.00443615 5.99556
5.9952 1.50008 0.00479708
5.99478 1.5001 1.5001
5.99476 1.50011 3
5.99478 1.5001 4.4999
5.9952 1.50008 5.9952
5.99519 3 0.00481162
5.99476 3 1.50011
5.99474 3 3
5.99476 3 4.49989
5.99519 3 5.99519
5.9952 4.49992 0.00479708
5.99478 4.4999 1.5001
5.99476 4.49989 3
5.99478 4.4999 4.4999
5.9952 4.49992 5.9952
5.99556 5.99556 0.00443615
5.9952 5.9952 1.50008
5.99519 5.99519 3
5.9952 5.9952 4.49992
5.99556 5.99556 5.99556

VERTICES 125 250
1 0
1 1
1 2
1 3
1 4
1 5
1 6
1 7
1 8
1 9
1 10
1 11
1 12
1 13
1 14
1 15
1 16
1 17
1 18
1 19
1 20
1 21
1 22
1 23
1 24
1 25
1 26
1 27
1 28
1 29
1 30
1 31
1 32
1 33
1 34
1 35
1 36
1 37
1 38
1 39
1 40
1 41
1 42
1 43
1 44
1 45
1 46
1 47
1 48
1 49
1 50
1 51
1 52
1 53
1 54
1 55
1 56
1 57
1 58
1 59
1 60
1 61
1 62
1 63
1 64
1 65
1 66
1 67
1 68
1 69
1 70
1 71
1 72
1 73
1 74
1 75
1 76
1 77
1 78
1 79
1 80
1 81
1 82
1 83
1 84
1 85
1 86
1 87
1 88
1 89
1 90
1 91
1 92
1 93
1 94
1 95
1 96
1 97
1 98
1 99
1 100
1 101
1 102
1 103
1 104
1 105
1 106
1 107
1 108
1 109
1 110
1 111
1 112
1 113
1 114
1 115
1 116
1 117
1 118
1 119
1 120
1 121
1 122
1 123
1 124

POINT_DATA 125
SCALARS speed double 1
LOOKUP_TABLE default
0.192649
0.170111
0.170602
0.170111
0.192649
0.170111
0.130956
0.131404
0.130956
0.170111
0.170602
0.131404
0.131869
0.131404
0.170602
0.170111
0.130956
0.131404
0.130956
0.170111
0.192649
0.170111
0.170602
0.170111
0.192649
0.170111
0.130956
0.131404
0.130956
0.170111
0.130956
0.00518658
0.00442416
0.00518658
0.130956
0.131404
0.00442416
0.00327158
0.00442416
0.131404
0.130956
0.00518658
0.00442416
0.00518658
0.130956
0.170111
0.130956
0.131404
0.130956
0.170111
0.170602
0.131404
0.131869
0.131404
0.170602
0.131404
0.00442416
0.00327158
0.00442416
0.131404
0.131869
0.00327158
3.20948e-15
0.00327158
0.131869
0.131404
0.00442416
0.00327158
0.00442416
0.131404
0.170602
0.131404
0.131869
0.131404
0.170602
0.170111
0.130956
0.131404
0.130956
0.170111
0.130956
0.00518658
0.00442416
0.00518658
0.130956
0.131404
0.00442416
0.00327158
0.00442416
0.131404
0.130956
0.00518658
0.00442416
0.00518658
0.130956
0.170111
0.130956
0.131404
0.130956
0.170111
0.192649
0.170111
0.170602
0.170111
0.192649
0.170111
0.130956
0.131404
0.130956
0.170111
0.170602
0.131404
0.131869
0.131404
0.170602
0.170111
0.130956
0.131404
0.130956
0.170111
0.192649
0.170111
0.170602
0.170111
0.192649

SCALARS mass double 1
LOOKUP_TABLE default
1
1
1
1
1
1
1
1
1
1
1
1
1
1
1
1
1
1
1
1
1
1
1
1
1
1
1
1
1
1
1
1
1
1
1
1
1
1
1
1
1
1
1
1
1
1
1
1
1
1
1
1
1
1
1
1
1
1
1
1
1
1
1
1
1
1
1
1
1
1
1
1
1
1
1
1
1
1
1
1
1
1
1
1
1
1
1
1
1
1
1
1
1
1
1
1
1
1
1
1
1
1
1
1
1
1
1
1
1
1
1
1
1
1
1
1
1
1
1
1
1
1
1
1
1
