# vtk DataFile Version 3.0
Molecular dynamics particles
ASCII
DATASET POLYDATA
POINTS 125 double
0.00840889 0.00840889 0.00840889
0.00909346 0.00909346 1.50013
0.00912021 0.00912021 3
0.00909346 0.00909346 4.49987
0.00840889 0.00840889 5.99159
0.00909346 1.50013 0.00909346
0.0098976 1.50017 1.50017
0.00993283 1.50018 3
0.0098976 1.50017 4.49983
0.00909346 1.50013 5.99091
0.00912021 3 0.00912021
0.00993283 3 1.50018
0.00996967 3 3
0.00993283 3 4.49982
0.00912021 3 5.99088
0.00909346 4.49987 0.00909346
0.0098976 4.49983 1.50017
0.00993283 4.49982 3
0.0098976 4.49983 4.49983
0.00909346 4.49987 5.99091
0.00840889 5.99159 0.00840889
0.00909346 5.99091 1.50013
0.00912021 5.99088 3
0.00909346 5.99091 4.49987
0.00840889 5.99159 5.99159
1.50013 0.00909346 0.00909346
1.50017 0.0098976 1.50017
1.50018 0.00993283 3
1.50017 0.0098976 4.49983
1.50013 0.00909346 5.99091
1.50017 1.50017 0.0098976
1.50023 1.50023 1.50023
1.50024 1.50024 3
1.50023 1.50023 4.49977
1.50017 1.50017 5.9901
1.50018 3 0.00993283
1.50024 3 1.50024
1.50025 3 3
1.50024 3 4.49976
1.50018 3 5.99007
1.50017 4.49983 0.0098976
1.50023 4.49977 1.50023
1.50024 4.49976 3
1.50023 4.49977 4.49977
1.50017 4.49983 5.9901
1.50013 5.99091 0.00909346
1.50017 5.9901 1.50017
1.50018 5.99007 3
1.50017 5.9901 4.49983
1.50013 5.99091 5.99091
3 0.00912021 0.00912021
3 0.00993283 1.50018
3 0.00996967 3
3 0.00993283 4.49982
3 0.00912021 5.99088
3 1.50018 0.00993283
3 1.50024 1.50024
3 1.50025 3
3 1.50024 4.49976
3 1.50018 5.99007
3 3 0.00996967
3 3 1.50025
3 3 3
3 3 4.49975
3 3 5.99003
3 4.49982 0.00993283
3 4.49976 1.50024
3 4.49975 3
3 4.49976 4.49976
3 4.49982 5.99007
3 5.99088 0.00912021
3 5.99007 1.50018
3 5.99003 3
3 5.99007 4.49982
3 5.99088 5.99088
4.49987 0.00909346 0.00909346
4.49983 0.0098976 1.50017
4.49982 0.00993283 3
4.49983 0.0098976 4.49983
4.49987 0.00909346 5.99091
4.49983 1.50017 0.0098976
4.49977 1.50023 1.50023
4.49976 1.50024 3
4.49977 1.50023 4.49977
4.49983 1.50017 5.9901
4.49982 3 0.00993283
4.49976 3 1.50024
4.49975 3 3
4.49976 3 4.49976
4.49982 3 5.99007
4.49983 4.49983 0.0098976
4.49977 4.49977 1.50023
4.49976 4.49976 3
4.49977 4.49977 4.49977
4.49983 4.49983 5.9901
4.49987 5.99091 0.00909346
4.49983 5.9901 1.50017
4.49982 5.99007 3
4.49983 5.9901 4.49983
4.49987 5.99091 5.99091
5.99159 0.00840889 0.00840889
5.99091 0.00909346 1.50013
5.99088 0.00912021 3
5.99091 0.00909346 4.49987
5.99159 0.00840889 5.99159
5.99091 1.50013 0.00909346
5.9901 1.50017 1.50017
5.99007 1.50018 3
5.9901 1.50017 4.49983
5.99091 1.50013 5.99091
5.99088 3 0.00912021
5.99007 3 1.50018
5.99003 3 3
5.99007 3 4.49982
5.99088 3 5.99088
5.99091 4.49987 0.00909346
5.9901 4.49983 1.50017
5.99007 4.49982 3
5.9901 4.49983 4.49983
5.99091 4.49987 5.99091
5.99159 5.99159 0.00840889
5.99091 5.99091 1.50013
5.99088 5.99088 3
5.99091 5.99091 4.49987
5.99159 5.99159 5.99159

VERTICES 125 250
1 0
1 1
1 2
1 3
1 4
1 5
1 6
1 7
1 8
1 9
1 10
1 11
1 12
1 13
1 14
1 15
1 16
1 17
1 18
1 19
1 20
1 21
1 22
1 23
1 24
1 25
1 26
1 27
1 28
1 29
1 30
1 31
1 32
1 33
1 34
1 35
1 36
1 37
1 38
1 39
1 40
1 41
1 42
1 43
1 44
1 45
1 46
1 47
1 48
1 49
1 50
1 51
1 52
1 53
1 54
1 55
1 56
1 57
1 58
1 59
1 60
1 61
1 62
1 63
1 64
1 65
1 66
1 67
1 68
1 69
1 70
1 71
1 72
1 73
1 74
1 75
1 76
1 77
1 78
1 79
1 80
1 81
1 82
1 83
1 84
1 85
1 86
1 87
1 88
1 89
1 90
1 91
1 92
1 93
1 94
1 95
1 96
1 97
1 98
1 99
1 100
1 101
1 102
1 103
1 104
1 105
1 106
1 107
1 108
1 109
1 110
1 111
1 112
1 113
1 114
1 115
1 116
1 117
1 118
1 119
1 120
1 121
1 122
1 123
1 124

POINT_DATA 125
SCALARS speed double 1
LOOKUP_TABLE default
0.266275
0.235141
0.235783
0.235141
0.266275
0.235141
0.18101
0.181605
0.18101
0.235141
0.235783
0.181605
0.182224
0.181605
0.235783
0.235141
0.18101
0.181605
0.18101
0.235141
0.266275
0.235141
0.235783
0.235141
0.266275
0.235141
0.18101
0.181605
0.18101
0.235141
0.18101
0.00568041
0.00488898
0.00568041
0.18101
0.181605
0.00488898
0.00364715
0.00488898
0.181605
0.18101
0.00568041
0.00488898
0.00568041
0.18101
0.235141
0.18101
0.181605
0.18101
0.235141
0.235783
0.181605
0.182224
0.181605
0.235783
0.181605
0.00488898
0.00364715
0.00488898
0.181605
0.182224
0.00364715
2.89273e-15
0.00364715
0.182224
0.181605
0.00488898
0.00364715
0.00488898
0.181605
0.235783
0.181605
0.182224
0.181605
0.235783
0.235141
0.18101
0.181605
0.18101
0.235141
0.18101
0.00568041
0.00488898
0.00568041
0.18101
0.181605
0.00488898
0.00364715
0.00488898
0.181605
0.18101
0.00568041
0.00488898
0.00568041
0.18101
0.235141
0.18101
0.181605
0.18101
0.235141
0.266275
0.235141
0.235783
0.235141
0.266275
0.235141
0.18101
0.181605
0.18101
0.235141
0.235783
0.181605
0.182224
0.181605
0.235783
0.235141
0.18101
0.181605
0.18101
0.235141
0.266275
0.235141
0.235783
0.235141
0.266275

SCALARS mass double 1
LOOKUP_TABLE default
1
1
1
1
1
1
1
1
1
1
1
1
1
1
1
1
1
1
1
1
1
1
1
1
1
1
1
1
1
1
1
1
1
1
1
1
1
1
1
1
1
1
1
1
1
1
1
1
1
1
1
1
1
1
1
1
1
1
1
1
1
1
1
1
1
1
1
1
1
1
1
1
1
1
1
1
1
1
1
1
1
1
1
1
1
1
1
1
1
1
1
1
1
1
1
1
1
1
1
1
1
1
1
1
1
1
1
1
1
1
1
1
1
1
1
1
1
1
1
1
1
1
1
1
1
