# vtk DataFile Version 3.0
Molecular dynamics particles
ASCII
DATASET POLYDATA
POINTS 125 double
0.426457 0.426457 0.426457
0.441894 0.441894 1.43636
0.436425 0.436425 3
0.441894 0.441894 4.56364
0.426457 0.426457 5.57354
0.441894 1.43636 0.441894
0.455993 1.45299 1.45299
0.450428 1.45273 3
0.455993 1.45299 4.54701
0.441894 1.43636 5.55811
0.436425 3 0.436425
0.450428 3 1.45273
0.445351 3 3
0.450428 3 4.54727
0.436425 3 5.56358
0.441894 4.56364 0.441894
0.455993 4.54701 1.45299
0.450428 4.54727 3
0.455993 4.54701 4.54701
0.441894 4.56364 5.55811
0.426457 5.57354 0.426457
0.441894 5.55811 1.43636
0.436425 5.56358 3
0.441894 5.55811 4.56364
0.426457 5.57354 5.57354
1.43636 0.441894 0.441894
1.45299 0.455993 1.45299
1.45273 0.450428 3
1.45299 0.455993 4.54701
1.43636 0.441894 5.55811
1.45299 1.45299 0.455993
1.48009 1.48009 1.48009
1.47792 1.47792 3
1.48009 1.48009 4.51991
1.45299 1.45299 5.54401
1.45273 3 0.450428
1.47792 3 1.47792
1.47629 3 3
1.47792 3 4.52208
1.45273 3 5.54957
1.45299 4.54701 0.455993
1.48009 4.51991 1.48009
1.47792 4.52208 3
1.48009 4.51991 4.51991
1.45299 4.54701 5.54401
1.43636 5.55811 0.441894
1.45299 5.54401 1.45299
1.45273 5.54957 3
1.45299 5.54401 4.54701
1.43636 5.55811 5.55811
3 0.436425 0.436425
3 0.450428 1.45273
3 0.445351 3
3 0.450428 4.54727
3 0.436425 5.56358
3 1.45273 0.450428
3 1.47792 1.47792
3 1.47629 3
3 1.47792 4.52208
3 1.45273 5.54957
3 3 0.445351
3 3 1.47629
3 3 3
3 3 4.52371
3 3 5.55465
3 4.54727 0.450428
3 4.52208 1.47792
3 4.52371 3
3 4.52208 4.52208
3 4.54727 5.54957
3 5.56358 0.436425
3 5.54957 1.45273
3 5.55465 3
3 5.54957 4.54727
3 5.56358 5.56358
4.56364 0.441894 0.441894
4.54701 0.455993 1.45299
4.54727 0.450428 3
4.54701 0.455993 4.54701
4.56364 0.441894 5.55811
4.54701 1.45299 0.455993
4.51991 1.48009 1.48009
4.52208 1.47792 3
4.51991 1.48009 4.51991
4.54701 1.45299 5.54401
4.54727 3 0.450428
4.52208 3 1.47792
4.52371 3 3
4.52208 3 4.52208
4.54727 3 5.54957
4.54701 4.54701 0.455993
4.51991 4.51991 1.48009
4.52208 4.52208 3
4.51991 4.51991 4.51991
4.54701 4.54701 5.54401
4.56364 5.55811 0.441894
4.54701 5.54401 1.45299
4.54727 5.54957 3
4.54701 5.54401 4.54701
4.56364 5.55811 5.55811
5.57354 0.426457 0.426457
5.55811 0.441894 1.43636
5.56358 0.436425 3
5.55811 0.441894 4.56364
5.57354 0.426457 5.57354
5.55811 1.43636 0.441894
5.54401 1.45299 1.45299
5.54957 1.45273 3
5.54401 1.45299 4.54701
5.55811 1.43636 5.55811
5.56358 3 0.436425
5.54957 3 1.45273
5.55465 3 3
5.54957 3 4.54727
5.56358 3 5.56358
5.55811 4.56364 0.441894
5.54401 4.54701 1.45299
5.54957 4.54727 3
5.54401 4.54701 4.54701
5.55811 4.56364 5.55811
5.57354 5.57354 0.426457
5.55811 5.55811 1.43636
5.56358 5.56358 3
5.55811 5.55811 4.56364
5.57354 5.57354 5.57354

VERTICES 125 250
1 0
1 1
1 2
1 3
1 4
1 5
1 6
1 7
1 8
1 9
1 10
1 11
1 12
1 13
1 14
1 15
1 16
1 17
1 18
1 19
1 20
1 21
1 22
1 23
1 24
1 25
1 26
1 27
1 28
1 29
1 30
1 31
1 32
1 33
1 34
1 35
1 36
1 37
1 38
1 39
1 40
1 41
1 42
1 43
1 44
1 45
1 46
1 47
1 48
1 49
1 50
1 51
1 52
1 53
1 54
1 55
1 56
1 57
1 58
1 59
1 60
1 61
1 62
1 63
1 64
1 65
1 66
1 67
1 68
1 69
1 70
1 71
1 72
1 73
1 74
1 75
1 76
1 77
1 78
1 79
1 80
1 81
1 82
1 83
1 84
1 85
1 86
1 87
1 88
1 89
1 90
1 91
1 92
1 93
1 94
1 95
1 96
1 97
1 98
1 99
1 100
1 101
1 102
1 103
1 104
1 105
1 106
1 107
1 108
1 109
1 110
1 111
1 112
1 113
1 114
1 115
1 116
1 117
1 118
1 119
1 120
1 121
1 122
1 123
1 124

POINT_DATA 125
SCALARS speed double 1
LOOKUP_TABLE default
0.990391
0.614699
0.472716
0.614699
0.990391
0.614699
1.13344
0.731071
1.13344
0.614699
0.472716
0.731071
0.152147
0.731071
0.472716
0.614699
1.13344
0.731071
1.13344
0.614699
0.990391
0.614699
0.472716
0.614699
0.990391
0.614699
1.13344
0.731071
1.13344
0.614699
1.13344
2.07657
1.55321
2.07657
1.13344
0.731071
1.55321
1.00994
1.55321
0.731071
1.13344
2.07657
1.55321
2.07657
1.13344
0.614699
1.13344
0.731071
1.13344
0.614699
0.472716
0.731071
0.152147
0.731071
0.472716
0.731071
1.55321
1.00994
1.55321
0.731071
0.152147
1.00994
1.52105e-14
1.00994
0.152147
0.731071
1.55321
1.00994
1.55321
0.731071
0.472716
0.731071
0.152147
0.731071
0.472716
0.614699
1.13344
0.731071
1.13344
0.614699
1.13344
2.07657
1.55321
2.07657
1.13344
0.731071
1.55321
1.00994
1.55321
0.731071
1.13344
2.07657
1.55321
2.07657
1.13344
0.614699
1.13344
0.731071
1.13344
0.614699
0.990391
0.614699
0.472716
0.614699
0.990391
0.614699
1.13344
0.731071
1.13344
0.614699
0.472716
0.731071
0.152147
0.731071
0.472716
0.614699
1.13344
0.731071
1.13344
0.614699
0.990391
0.614699
0.472716
0.614699
0.990391

SCALARS mass double 1
LOOKUP_TABLE default
1
1
1
1
1
1
1
1
1
1
1
1
1
1
1
1
1
1
1
1
1
1
1
1
1
1
1
1
1
1
1
1
1
1
1
1
1
1
1
1
1
1
1
1
1
1
1
1
1
1
1
1
1
1
1
1
1
1
1
1
1
1
1
1
1
1
1
1
1
1
1
1
1
1
1
1
1
1
1
1
1
1
1
1
1
1
1
1
1
1
1
1
1
1
1
1
1
1
1
1
1
1
1
1
1
1
1
1
1
1
1
1
1
1
1
1
1
1
1
1
1
1
1
1
1
