# vtk DataFile Version 3.0
Molecular dynamics particles
ASCII
DATASET POLYDATA
POINTS 125 double
0.0374732 0.0374732 0.0374732
0.040538 0.040538 1.49994
0.0406296 0.0406296 3
0.040538 0.040538 4.50006
0.0374732 0.0374732 5.96253
0.040538 1.49994 0.040538
0.0441331 1.50007 1.50007
0.0442579 1.5001 3
0.0441331 1.50007 4.49993
0.040538 1.49994 5.95946
0.0406296 3 0.0406296
0.0442579 3 1.5001
0.0443891 3 3
0.0442579 3 4.4999
0.0406296 3 5.95937
0.040538 4.50006 0.040538
0.0441331 4.49993 1.50007
0.0442579 4.4999 3
0.0441331 4.49993 4.49993
0.040538 4.50006 5.95946
0.0374732 5.96253 0.0374732
0.040538 5.95946 1.49994
0.0406296 5.95937 3
0.040538 5.95946 4.50006
0.0374732 5.96253 5.96253
1.49994 0.040538 0.040538
1.50007 0.0441331 1.50007
1.5001 0.0442579 3
1.50007 0.0441331 4.49993
1.49994 0.040538 5.95946
1.50007 1.50007 0.0441331
1.50025 1.50025 1.50025
1.50029 1.50029 3
1.50025 1.50025 4.49975
1.50007 1.50007 5.95587
1.5001 3 0.0442579
1.50029 3 1.50029
1.50033 3 3
1.50029 3 4.49971
1.5001 3 5.95574
1.50007 4.49993 0.0441331
1.50025 4.49975 1.50025
1.50029 4.49971 3
1.50025 4.49975 4.49975
1.50007 4.49993 5.95587
1.49994 5.95946 0.040538
1.50007 5.95587 1.50007
1.5001 5.95574 3
1.50007 5.95587 4.49993
1.49994 5.95946 5.95946
3 0.0406296 0.0406296
3 0.0442579 1.5001
3 0.0443891 3
3 0.0442579 4.4999
3 0.0406296 5.95937
3 1.5001 0.0442579
3 1.50029 1.50029
3 1.50033 3
3 1.50029 4.49971
3 1.5001 5.95574
3 3 0.0443891
3 3 1.50033
3 3 3
3 3 4.49967
3 3 5.95561
3 4.4999 0.0442579
3 4.49971 1.50029
3 4.49967 3
3 4.49971 4.49971
3 4.4999 5.95574
3 5.95937 0.0406296
3 5.95574 1.5001
3 5.95561 3
3 5.95574 4.4999
3 5.95937 5.95937
4.50006 0.040538 0.040538
4.49993 0.0441331 1.50007
4.4999 0.0442579 3
4.49993 0.0441331 4.49993
4.50006 0.040538 5.95946
4.49993 1.50007 0.0441331
4.49975 1.50025 1.50025
4.49971 1.50029 3
4.49975 1.50025 4.49975
4.49993 1.50007 5.95587
4.4999 3 0.0442579
4.49971 3 1.50029
4.49967 3 3
4.49971 3 4.49971
4.4999 3 5.95574
4.49993 4.49993 0.0441331
4.49975 4.49975 1.50025
4.49971 4.49971 3
4.49975 4.49975 4.49975
4.49993 4.49993 5.95587
4.50006 5.95946 0.040538
4.49993 5.95587 1.50007
4.4999 5.95574 3
4.49993 5.95587 4.49993
4.50006 5.95946 5.95946
5.96253 0.0374732 0.0374732
5.95946 0.040538 1.49994
5.95937 0.0406296 3
5.95946 0.040538 4.50006
5.96253 0.0374732 5.96253
5.95946 1.49994 0.040538
5.95587 1.50007 1.50007
5.95574 1.5001 3
5.95587 1.50007 4.49993
5.95946 1.49994 5.95946
5.95937 3 0.0406296
5.95574 3 1.5001
5.95561 3 3
5.95574 3 4.4999
5.95937 3 5.95937
5.95946 4.50006 0.040538
5.95587 4.49993 1.50007
5.95574 4.4999 3
5.95587 4.49993 4.49993
5.95946 4.50006 5.95946
5.96253 5.96253 0.0374732
5.95946 5.95946 1.49994
5.95937 5.95937 3
5.95946 5.95946 4.50006
5.96253 5.96253 5.96253

VERTICES 125 250
1 0
1 1
1 2
1 3
1 4
1 5
1 6
1 7
1 8
1 9
1 10
1 11
1 12
1 13
1 14
1 15
1 16
1 17
1 18
1 19
1 20
1 21
1 22
1 23
1 24
1 25
1 26
1 27
1 28
1 29
1 30
1 31
1 32
1 33
1 34
1 35
1 36
1 37
1 38
1 39
1 40
1 41
1 42
1 43
1 44
1 45
1 46
1 47
1 48
1 49
1 50
1 51
1 52
1 53
1 54
1 55
1 56
1 57
1 58
1 59
1 60
1 61
1 62
1 63
1 64
1 65
1 66
1 67
1 68
1 69
1 70
1 71
1 72
1 73
1 74
1 75
1 76
1 77
1 78
1 79
1 80
1 81
1 82
1 83
1 84
1 85
1 86
1 87
1 88
1 89
1 90
1 91
1 92
1 93
1 94
1 95
1 96
1 97
1 98
1 99
1 100
1 101
1 102
1 103
1 104
1 105
1 106
1 107
1 108
1 109
1 110
1 111
1 112
1 113
1 114
1 115
1 116
1 117
1 118
1 119
1 120
1 121
1 122
1 123
1 124

POINT_DATA 125
SCALARS speed double 1
LOOKUP_TABLE default
0.578775
0.511511
0.51214
0.511511
0.578775
0.511511
0.393983
0.394636
0.393983
0.511511
0.51214
0.394636
0.395348
0.394636
0.51214
0.511511
0.393983
0.394636
0.393983
0.511511
0.578775
0.511511
0.51214
0.511511
0.578775
0.511511
0.393983
0.394636
0.393983
0.511511
0.393983
0.0116285
0.00907103
0.0116285
0.393983
0.394636
0.00907103
0.00609226
0.00907103
0.394636
0.393983
0.0116285
0.00907103
0.0116285
0.393983
0.511511
0.393983
0.394636
0.393983
0.511511
0.51214
0.394636
0.395348
0.394636
0.51214
0.394636
0.00907103
0.00609226
0.00907103
0.394636
0.395348
0.00609226
8.62702e-16
0.00609226
0.395348
0.394636
0.00907103
0.00609226
0.00907103
0.394636
0.51214
0.394636
0.395348
0.394636
0.51214
0.511511
0.393983
0.394636
0.393983
0.511511
0.393983
0.0116285
0.00907103
0.0116285
0.393983
0.394636
0.00907103
0.00609226
0.00907103
0.394636
0.393983
0.0116285
0.00907103
0.0116285
0.393983
0.511511
0.393983
0.394636
0.393983
0.511511
0.578775
0.511511
0.51214
0.511511
0.578775
0.511511
0.393983
0.394636
0.393983
0.511511
0.51214
0.394636
0.395348
0.394636
0.51214
0.511511
0.393983
0.394636
0.393983
0.511511
0.578775
0.511511
0.51214
0.511511
0.578775

SCALARS mass double 1
LOOKUP_TABLE default
1
1
1
1
1
1
1
1
1
1
1
1
1
1
1
1
1
1
1
1
1
1
1
1
1
1
1
1
1
1
1
1
1
1
1
1
1
1
1
1
1
1
1
1
1
1
1
1
1
1
1
1
1
1
1
1
1
1
1
1
1
1
1
1
1
1
1
1
1
1
1
1
1
1
1
1
1
1
1
1
1
1
1
1
1
1
1
1
1
1
1
1
1
1
1
1
1
1
1
1
1
1
1
1
1
1
1
1
1
1
1
1
1
1
1
1
1
1
1
1
1
1
1
1
1
