# vtk DataFile Version 3.0
Molecular dynamics particles
ASCII
DATASET POLYDATA
POINTS 125 double
0.341849 0.341849 0.341849
0.368028 0.368028 1.44432
0.364321 0.364321 3
0.368028 0.368028 4.55568
0.341849 0.341849 5.65815
0.368028 1.44432 0.368028
0.395978 1.44215 1.44215
0.391951 1.44367 3
0.395978 1.44215 4.55785
0.368028 1.44432 5.63197
0.364321 3 0.364321
0.391951 3 1.44367
0.388166 3 3
0.391951 3 4.55633
0.364321 3 5.63568
0.368028 4.55568 0.368028
0.395978 4.55785 1.44215
0.391951 4.55633 3
0.395978 4.55785 4.55785
0.368028 4.55568 5.63197
0.341849 5.65815 0.341849
0.368028 5.63197 1.44432
0.364321 5.63568 3
0.368028 5.63197 4.55568
0.341849 5.65815 5.65815
1.44432 0.368028 0.368028
1.44215 0.395978 1.44215
1.44367 0.391951 3
1.44215 0.395978 4.55785
1.44432 0.368028 5.63197
1.44215 1.44215 0.395978
1.44243 1.44243 1.44243
1.44402 1.44402 3
1.44243 1.44243 4.55757
1.44215 1.44215 5.60402
1.44367 3 0.391951
1.44402 3 1.44402
1.44558 3 3
1.44402 3 4.55598
1.44367 3 5.60805
1.44215 4.55785 0.395978
1.44243 4.55757 1.44243
1.44402 4.55598 3
1.44243 4.55757 4.55757
1.44215 4.55785 5.60402
1.44432 5.63197 0.368028
1.44215 5.60402 1.44215
1.44367 5.60805 3
1.44215 5.60402 4.55785
1.44432 5.63197 5.63197
3 0.364321 0.364321
3 0.391951 1.44367
3 0.388166 3
3 0.391951 4.55633
3 0.364321 5.63568
3 1.44367 0.391951
3 1.44402 1.44402
3 1.44558 3
3 1.44402 4.55598
3 1.44367 5.60805
3 3 0.388166
3 3 1.44558
3 3 3
3 3 4.55442
3 3 5.61183
3 4.55633 0.391951
3 4.55598 1.44402
3 4.55442 3
3 4.55598 4.55598
3 4.55633 5.60805
3 5.63568 0.364321
3 5.60805 1.44367
3 5.61183 3
3 5.60805 4.55633
3 5.63568 5.63568
4.55568 0.368028 0.368028
4.55785 0.395978 1.44215
4.55633 0.391951 3
4.55785 0.395978 4.55785
4.55568 0.368028 5.63197
4.55785 1.44215 0.395978
4.55757 1.44243 1.44243
4.55598 1.44402 3
4.55757 1.44243 4.55757
4.55785 1.44215 5.60402
4.55633 3 0.391951
4.55598 3 1.44402
4.55442 3 3
4.55598 3 4.55598
4.55633 3 5.60805
4.55785 4.55785 0.395978
4.55757 4.55757 1.44243
4.55598 4.55598 3
4.55757 4.55757 4.55757
4.55785 4.55785 5.60402
4.55568 5.63197 0.368028
4.55785 5.60402 1.44215
4.55633 5.60805 3
4.55785 5.60402 4.55785
4.55568 5.63197 5.63197
5.65815 0.341849 0.341849
5.63197 0.368028 1.44432
5.63568 0.364321 3
5.63197 0.368028 4.55568
5.65815 0.341849 5.65815
5.63197 1.44432 0.368028
5.60402 1.44215 1.44215
5.60805 1.44367 3
5.60402 1.44215 4.55785
5.63197 1.44432 5.63197
5.63568 3 0.364321
5.60805 3 1.44367
5.61183 3 3
5.60805 3 4.55633
5.63568 3 5.63568
5.63197 4.55568 0.368028
5.60402 4.55785 1.44215
5.60805 4.55633 3
5.60402 4.55785 4.55785
5.63197 4.55568 5.63197
5.65815 5.65815 0.341849
5.63197 5.63197 1.44432
5.63568 5.63568 3
5.63197 5.63197 4.55568
5.65815 5.65815 5.65815

VERTICES 125 250
1 0
1 1
1 2
1 3
1 4
1 5
1 6
1 7
1 8
1 9
1 10
1 11
1 12
1 13
1 14
1 15
1 16
1 17
1 18
1 19
1 20
1 21
1 22
1 23
1 24
1 25
1 26
1 27
1 28
1 29
1 30
1 31
1 32
1 33
1 34
1 35
1 36
1 37
1 38
1 39
1 40
1 41
1 42
1 43
1 44
1 45
1 46
1 47
1 48
1 49
1 50
1 51
1 52
1 53
1 54
1 55
1 56
1 57
1 58
1 59
1 60
1 61
1 62
1 63
1 64
1 65
1 66
1 67
1 68
1 69
1 70
1 71
1 72
1 73
1 74
1 75
1 76
1 77
1 78
1 79
1 80
1 81
1 82
1 83
1 84
1 85
1 86
1 87
1 88
1 89
1 90
1 91
1 92
1 93
1 94
1 95
1 96
1 97
1 98
1 99
1 100
1 101
1 102
1 103
1 104
1 105
1 106
1 107
1 108
1 109
1 110
1 111
1 112
1 113
1 114
1 115
1 116
1 117
1 118
1 119
1 120
1 121
1 122
1 123
1 124

POINT_DATA 125
SCALARS speed double 1
LOOKUP_TABLE default
2.20102
1.8577
1.76895
1.8577
2.20102
1.8577
1.32005
1.24758
1.32005
1.8577
1.76895
1.24758
1.18117
1.24758
1.76895
1.8577
1.32005
1.24758
1.32005
1.8577
2.20102
1.8577
1.76895
1.8577
2.20102
1.8577
1.32005
1.24758
1.32005
1.8577
1.32005
0.264158
0.208796
0.264158
1.32005
1.24758
0.208796
0.142364
0.208796
1.24758
1.32005
0.264158
0.208796
0.264158
1.32005
1.8577
1.32005
1.24758
1.32005
1.8577
1.76895
1.24758
1.18117
1.24758
1.76895
1.24758
0.208796
0.142364
0.208796
1.24758
1.18117
0.142364
2.02682e-14
0.142364
1.18117
1.24758
0.208796
0.142364
0.208796
1.24758
1.76895
1.24758
1.18117
1.24758
1.76895
1.8577
1.32005
1.24758
1.32005
1.8577
1.32005
0.264158
0.208796
0.264158
1.32005
1.24758
0.208796
0.142364
0.208796
1.24758
1.32005
0.264158
0.208796
0.264158
1.32005
1.8577
1.32005
1.24758
1.32005
1.8577
2.20102
1.8577
1.76895
1.8577
2.20102
1.8577
1.32005
1.24758
1.32005
1.8577
1.76895
1.24758
1.18117
1.24758
1.76895
1.8577
1.32005
1.24758
1.32005
1.8577
2.20102
1.8577
1.76895
1.8577
2.20102

SCALARS mass double 1
LOOKUP_TABLE default
1
1
1
1
1
1
1
1
1
1
1
1
1
1
1
1
1
1
1
1
1
1
1
1
1
1
1
1
1
1
1
1
1
1
1
1
1
1
1
1
1
1
1
1
1
1
1
1
1
1
1
1
1
1
1
1
1
1
1
1
1
1
1
1
1
1
1
1
1
1
1
1
1
1
1
1
1
1
1
1
1
1
1
1
1
1
1
1
1
1
1
1
1
1
1
1
1
1
1
1
1
1
1
1
1
1
1
1
1
1
1
1
1
1
1
1
1
1
1
1
1
1
1
1
1
