# vtk DataFile Version 3.0
Molecular dynamics particles
ASCII
DATASET POLYDATA
POINTS 125 double
0.412851 0.412851 0.412851
0.431172 0.431172 1.58321
0.422151 0.422151 3
0.431172 0.431172 4.41679
0.412851 0.412851 5.58715
0.431172 1.58321 0.431172
0.461621 1.62716 1.62716
0.447959 1.61593 3
0.461621 1.62716 4.37284
0.431172 1.58321 5.56883
0.422151 3 0.422151
0.447959 3 1.61593
0.436936 3 3
0.447959 3 4.38407
0.422151 3 5.57785
0.431172 4.41679 0.431172
0.461621 4.37284 1.62716
0.447959 4.38407 3
0.461621 4.37284 4.37284
0.431172 4.41679 5.56883
0.412851 5.58715 0.412851
0.431172 5.56883 1.58321
0.422151 5.57785 3
0.431172 5.56883 4.41679
0.412851 5.58715 5.58715
1.58321 0.431172 0.431172
1.62716 0.461621 1.62716
1.61593 0.447959 3
1.62716 0.461621 4.37284
1.58321 0.431172 5.56883
1.62716 1.62716 0.461621
1.68055 1.68055 1.68055
1.66657 1.66657 3
1.68055 1.68055 4.31945
1.62716 1.62716 5.53838
1.61593 3 0.447959
1.66657 3 1.66657
1.65432 3 3
1.66657 3 4.33343
1.61593 3 5.55204
1.62716 4.37284 0.461621
1.68055 4.31945 1.68055
1.66657 4.33343 3
1.68055 4.31945 4.31945
1.62716 4.37284 5.53838
1.58321 5.56883 0.431172
1.62716 5.53838 1.62716
1.61593 5.55204 3
1.62716 5.53838 4.37284
1.58321 5.56883 5.56883
3 0.422151 0.422151
3 0.447959 1.61593
3 0.436936 3
3 0.447959 4.38407
3 0.422151 5.57785
3 1.61593 0.447959
3 1.66657 1.66657
3 1.65432 3
3 1.66657 4.33343
3 1.61593 5.55204
3 3 0.436936
3 3 1.65432
3 3 3
3 3 4.34568
3 3 5.56306
3 4.38407 0.447959
3 4.33343 1.66657
3 4.34568 3
3 4.33343 4.33343
3 4.38407 5.55204
3 5.57785 0.422151
3 5.55204 1.61593
3 5.56306 3
3 5.55204 4.38407
3 5.57785 5.57785
4.41679 0.431172 0.431172
4.37284 0.461621 1.62716
4.38407 0.447959 3
4.37284 0.461621 4.37284
4.41679 0.431172 5.56883
4.37284 1.62716 0.461621
4.31945 1.68055 1.68055
4.33343 1.66657 3
4.31945 1.68055 4.31945
4.37284 1.62716 5.53838
4.38407 3 0.447959
4.33343 3 1.66657
4.34568 3 3
4.33343 3 4.33343
4.38407 3 5.55204
4.37284 4.37284 0.461621
4.31945 4.31945 1.68055
4.33343 4.33343 3
4.31945 4.31945 4.31945
4.37284 4.37284 5.53838
4.41679 5.56883 0.431172
4.37284 5.53838 1.62716
4.38407 5.55204 3
4.37284 5.53838 4.37284
4.41679 5.56883 5.56883
5.58715 0.412851 0.412851
5.56883 0.431172 1.58321
5.57785 0.422151 3
5.56883 0.431172 4.41679
5.58715 0.412851 5.58715
5.56883 1.58321 0.431172
5.53838 1.62716 1.62716
5.55204 1.61593 3
5.53838 1.62716 4.37284
5.56883 1.58321 5.56883
5.57785 3 0.422151
5.55204 3 1.61593
5.56306 3 3
5.55204 3 4.38407
5.57785 3 5.57785
5.56883 4.41679 0.431172
5.53838 4.37284 1.62716
5.55204 4.38407 3
5.53838 4.37284 4.37284
5.56883 4.41679 5.56883
5.58715 5.58715 0.412851
5.56883 5.56883 1.58321
5.57785 5.57785 3
5.56883 5.56883 4.41679
5.58715 5.58715 5.58715

VERTICES 125 250
1 0
1 1
1 2
1 3
1 4
1 5
1 6
1 7
1 8
1 9
1 10
1 11
1 12
1 13
1 14
1 15
1 16
1 17
1 18
1 19
1 20
1 21
1 22
1 23
1 24
1 25
1 26
1 27
1 28
1 29
1 30
1 31
1 32
1 33
1 34
1 35
1 36
1 37
1 38
1 39
1 40
1 41
1 42
1 43
1 44
1 45
1 46
1 47
1 48
1 49
1 50
1 51
1 52
1 53
1 54
1 55
1 56
1 57
1 58
1 59
1 60
1 61
1 62
1 63
1 64
1 65
1 66
1 67
1 68
1 69
1 70
1 71
1 72
1 73
1 74
1 75
1 76
1 77
1 78
1 79
1 80
1 81
1 82
1 83
1 84
1 85
1 86
1 87
1 88
1 89
1 90
1 91
1 92
1 93
1 94
1 95
1 96
1 97
1 98
1 99
1 100
1 101
1 102
1 103
1 104
1 105
1 106
1 107
1 108
1 109
1 110
1 111
1 112
1 113
1 114
1 115
1 116
1 117
1 118
1 119
1 120
1 121
1 122
1 123
1 124

POINT_DATA 125
SCALARS speed double 1
LOOKUP_TABLE default
0.410877
1.36436
0.154937
1.36436
0.410877
1.36436
2.07577
1.39816
2.07577
1.36436
0.154937
1.39816
0.0424974
1.39816
0.154937
1.36436
2.07577
1.39816
2.07577
1.36436
0.410877
1.36436
0.154937
1.36436
0.410877
1.36436
2.07577
1.39816
2.07577
1.36436
2.07577
2.74546
2.13506
2.74546
2.07577
1.39816
2.13506
1.44271
2.13506
1.39816
2.07577
2.74546
2.13506
2.74546
2.07577
1.36436
2.07577
1.39816
2.07577
1.36436
0.154937
1.39816
0.0424974
1.39816
0.154937
1.39816
2.13506
1.44271
2.13506
1.39816
0.0424974
1.44271
2.60847e-14
1.44271
0.0424974
1.39816
2.13506
1.44271
2.13506
1.39816
0.154937
1.39816
0.0424974
1.39816
0.154937
1.36436
2.07577
1.39816
2.07577
1.36436
2.07577
2.74546
2.13506
2.74546
2.07577
1.39816
2.13506
1.44271
2.13506
1.39816
2.07577
2.74546
2.13506
2.74546
2.07577
1.36436
2.07577
1.39816
2.07577
1.36436
0.410877
1.36436
0.154937
1.36436
0.410877
1.36436
2.07577
1.39816
2.07577
1.36436
0.154937
1.39816
0.0424974
1.39816
0.154937
1.36436
2.07577
1.39816
2.07577
1.36436
0.410877
1.36436
0.154937
1.36436
0.410877

SCALARS mass double 1
LOOKUP_TABLE default
1
1
1
1
1
1
1
1
1
1
1
1
1
1
1
1
1
1
1
1
1
1
1
1
1
1
1
1
1
1
1
1
1
1
1
1
1
1
1
1
1
1
1
1
1
1
1
1
1
1
1
1
1
1
1
1
1
1
1
1
1
1
1
1
1
1
1
1
1
1
1
1
1
1
1
1
1
1
1
1
1
1
1
1
1
1
1
1
1
1
1
1
1
1
1
1
1
1
1
1
1
1
1
1
1
1
1
1
1
1
1
1
1
1
1
1
1
1
1
1
1
1
1
1
1
