# vtk DataFile Version 3.0
Molecular dynamics particles
ASCII
DATASET POLYDATA
POINTS 125 double
0.00339412 0.00339412 0.00339412
0.00367022 0.00367022 1.50006
0.00368143 0.00368143 3
0.00367022 0.00367022 4.49994
0.00339412 0.00339412 5.99661
0.00367022 1.50006 0.00367022
0.00399462 1.50008 1.50008
0.00400933 1.50008 3
0.00399462 1.50008 4.49992
0.00367022 1.50006 5.99633
0.00368143 3 0.00368143
0.00400933 3 1.50008
0.00402469 3 3
0.00400933 3 4.49992
0.00368143 3 5.99632
0.00367022 4.49994 0.00367022
0.00399462 4.49992 1.50008
0.00400933 4.49992 3
0.00399462 4.49992 4.49992
0.00367022 4.49994 5.99633
0.00339412 5.99661 0.00339412
0.00367022 5.99633 1.50006
0.00368143 5.99632 3
0.00367022 5.99633 4.49994
0.00339412 5.99661 5.99661
1.50006 0.00367022 0.00367022
1.50008 0.00399462 1.50008
1.50008 0.00400933 3
1.50008 0.00399462 4.49992
1.50006 0.00367022 5.99633
1.50008 1.50008 0.00399462
1.5001 1.5001 1.5001
1.50011 1.50011 3
1.5001 1.5001 4.4999
1.50008 1.50008 5.99601
1.50008 3 0.00400933
1.50011 3 1.50011
1.50011 3 3
1.50011 3 4.49989
1.50008 3 5.99599
1.50008 4.49992 0.00399462
1.5001 4.4999 1.5001
1.50011 4.49989 3
1.5001 4.4999 4.4999
1.50008 4.49992 5.99601
1.50006 5.99633 0.00367022
1.50008 5.99601 1.50008
1.50008 5.99599 3
1.50008 5.99601 4.49992
1.50006 5.99633 5.99633
3 0.00368143 0.00368143
3 0.00400933 1.50008
3 0.00402469 3
3 0.00400933 4.49992
3 0.00368143 5.99632
3 1.50008 0.00400933
3 1.50011 1.50011
3 1.50011 3
3 1.50011 4.49989
3 1.50008 5.99599
3 3 0.00402469
3 3 1.50011
3 3 3
3 3 4.49989
3 3 5.99598
3 4.49992 0.00400933
3 4.49989 1.50011
3 4.49989 3
3 4.49989 4.49989
3 4.49992 5.99599
3 5.99632 0.00368143
3 5.99599 1.50008
3 5.99598 3
3 5.99599 4.49992
3 5.99632 5.99632
4.49994 0.00367022 0.00367022
4.49992 0.00399462 1.50008
4.49992 0.00400933 3
4.49992 0.00399462 4.49992
4.49994 0.00367022 5.99633
4.49992 1.50008 0.00399462
4.4999 1.5001 1.5001
4.49989 1.50011 3
4.4999 1.5001 4.4999
4.49992 1.50008 5.99601
4.49992 3 0.00400933
4.49989 3 1.50011
4.49989 3 3
4.49989 3 4.49989
4.49992 3 5.99599
4.49992 4.49992 0.00399462
4.4999 4.4999 1.5001
4.49989 4.49989 3
4.4999 4.4999 4.4999
4.49992 4.49992 5.99601
4.49994 5.99633 0.00367022
4.49992 5.99601 1.50008
4.49992 5.99599 3
4.49992 5.99601 4.49992
4.49994 5.99633 5.99633
5.99661 0.00339412 0.00339412
5.99633 0.00367022 1.50006
5.99632 0.00368143 3
5.99633 0.00367022 4.49994
5.99661 0.00339412 5.99661
5.99633 1.50006 0.00367022
5.99601 1.50008 1.50008
5.99599 1.50008 3
5.99601 1.50008 4.49992
5.99633 1.50006 5.99633
5.99632 3 0.00368143
5.99599 3 1.50008
5.99598 3 3
5.99599 3 4.49992
5.99632 3 5.99632
5.99633 4.49994 0.00367022
5.99601 4.49992 1.50008
5.99599 4.49992 3
5.99601 4.49992 4.49992
5.99633 4.49994 5.99633
5.99661 5.99661 0.00339412
5.99633 5.99633 1.50006
5.99632 5.99632 3
5.99633 5.99633 4.49994
5.99661 5.99661 5.99661

VERTICES 125 250
1 0
1 1
1 2
1 3
1 4
1 5
1 6
1 7
1 8
1 9
1 10
1 11
1 12
1 13
1 14
1 15
1 16
1 17
1 18
1 19
1 20
1 21
1 22
1 23
1 24
1 25
1 26
1 27
1 28
1 29
1 30
1 31
1 32
1 33
1 34
1 35
1 36
1 37
1 38
1 39
1 40
1 41
1 42
1 43
1 44
1 45
1 46
1 47
1 48
1 49
1 50
1 51
1 52
1 53
1 54
1 55
1 56
1 57
1 58
1 59
1 60
1 61
1 62
1 63
1 64
1 65
1 66
1 67
1 68
1 69
1 70
1 71
1 72
1 73
1 74
1 75
1 76
1 77
1 78
1 79
1 80
1 81
1 82
1 83
1 84
1 85
1 86
1 87
1 88
1 89
1 90
1 91
1 92
1 93
1 94
1 95
1 96
1 97
1 98
1 99
1 100
1 101
1 102
1 103
1 104
1 105
1 106
1 107
1 108
1 109
1 110
1 111
1 112
1 113
1 114
1 115
1 116
1 117
1 118
1 119
1 120
1 121
1 122
1 123
1 124

POINT_DATA 125
SCALARS speed double 1
LOOKUP_TABLE default
0.168338
0.148642
0.149077
0.148642
0.168338
0.148642
0.11443
0.114825
0.11443
0.148642
0.149077
0.114825
0.115235
0.114825
0.149077
0.148642
0.11443
0.114825
0.11443
0.148642
0.168338
0.148642
0.149077
0.148642
0.168338
0.148642
0.11443
0.114825
0.11443
0.148642
0.11443
0.00477833
0.00406879
0.00477833
0.11443
0.114825
0.00406879
0.00300358
0.00406879
0.114825
0.11443
0.00477833
0.00406879
0.00477833
0.11443
0.148642
0.11443
0.114825
0.11443
0.148642
0.149077
0.114825
0.115235
0.114825
0.149077
0.114825
0.00406879
0.00300358
0.00406879
0.114825
0.115235
0.00300358
2.98987e-15
0.00300358
0.115235
0.114825
0.00406879
0.00300358
0.00406879
0.114825
0.149077
0.114825
0.115235
0.114825
0.149077
0.148642
0.11443
0.114825
0.11443
0.148642
0.11443
0.00477833
0.00406879
0.00477833
0.11443
0.114825
0.00406879
0.00300358
0.00406879
0.114825
0.11443
0.00477833
0.00406879
0.00477833
0.11443
0.148642
0.11443
0.114825
0.11443
0.148642
0.168338
0.148642
0.149077
0.148642
0.168338
0.148642
0.11443
0.114825
0.11443
0.148642
0.149077
0.114825
0.115235
0.114825
0.149077
0.148642
0.11443
0.114825
0.11443
0.148642
0.168338
0.148642
0.149077
0.148642
0.168338

SCALARS mass double 1
LOOKUP_TABLE default
1
1
1
1
1
1
1
1
1
1
1
1
1
1
1
1
1
1
1
1
1
1
1
1
1
1
1
1
1
1
1
1
1
1
1
1
1
1
1
1
1
1
1
1
1
1
1
1
1
1
1
1
1
1
1
1
1
1
1
1
1
1
1
1
1
1
1
1
1
1
1
1
1
1
1
1
1
1
1
1
1
1
1
1
1
1
1
1
1
1
1
1
1
1
1
1
1
1
1
1
1
1
1
1
1
1
1
1
1
1
1
1
1
1
1
1
1
1
1
1
1
1
1
1
1
