# vtk DataFile Version 3.0
Molecular dynamics particles
ASCII
DATASET POLYDATA
POINTS 125 double
0.206623 0.206623 0.206623
0.223937 0.223937 1.47968
0.223231 0.223231 3
0.223937 0.223937 4.52032
0.206623 0.206623 5.79338
0.223937 1.47968 0.223937
0.243975 1.47809 1.47809
0.243242 1.47841 3
0.243975 1.47809 4.52191
0.223937 1.47968 5.77606
0.223231 3 0.223231
0.243242 3 1.47841
0.242553 3 3
0.243242 3 4.52159
0.223231 3 5.77677
0.223937 4.52032 0.223937
0.243975 4.52191 1.47809
0.243242 4.52159 3
0.243975 4.52191 4.52191
0.223937 4.52032 5.77606
0.206623 5.79338 0.206623
0.223937 5.77606 1.47968
0.223231 5.77677 3
0.223937 5.77606 4.52032
0.206623 5.79338 5.79338
1.47968 0.223937 0.223937
1.47809 0.243975 1.47809
1.47841 0.243242 3
1.47809 0.243975 4.52191
1.47968 0.223937 5.77606
1.47809 1.47809 0.243975
1.47646 1.47646 1.47646
1.47686 1.47686 3
1.47646 1.47646 4.52354
1.47809 1.47809 5.75603
1.47841 3 0.243242
1.47686 3 1.47686
1.47727 3 3
1.47686 3 4.52314
1.47841 3 5.75676
1.47809 4.52191 0.243975
1.47646 4.52354 1.47646
1.47686 4.52314 3
1.47646 4.52354 4.52354
1.47809 4.52191 5.75603
1.47968 5.77606 0.223937
1.47809 5.75603 1.47809
1.47841 5.75676 3
1.47809 5.75603 4.52191
1.47968 5.77606 5.77606
3 0.223231 0.223231
3 0.243242 1.47841
3 0.242553 3
3 0.243242 4.52159
3 0.223231 5.77677
3 1.47841 0.243242
3 1.47686 1.47686
3 1.47727 3
3 1.47686 4.52314
3 1.47841 5.75676
3 3 0.242553
3 3 1.47727
3 3 3
3 3 4.52273
3 3 5.75745
3 4.52159 0.243242
3 4.52314 1.47686
3 4.52273 3
3 4.52314 4.52314
3 4.52159 5.75676
3 5.77677 0.223231
3 5.75676 1.47841
3 5.75745 3
3 5.75676 4.52159
3 5.77677 5.77677
4.52032 0.223937 0.223937
4.52191 0.243975 1.47809
4.52159 0.243242 3
4.52191 0.243975 4.52191
4.52032 0.223937 5.77606
4.52191 1.47809 0.243975
4.52354 1.47646 1.47646
4.52314 1.47686 3
4.52354 1.47646 4.52354
4.52191 1.47809 5.75603
4.52159 3 0.243242
4.52314 3 1.47686
4.52273 3 3
4.52314 3 4.52314
4.52159 3 5.75676
4.52191 4.52191 0.243975
4.52354 4.52354 1.47646
4.52314 4.52314 3
4.52354 4.52354 4.52354
4.52191 4.52191 5.75603
4.52032 5.77606 0.223937
4.52191 5.75603 1.47809
4.52159 5.75676 3
4.52191 5.75603 4.52191
4.52032 5.77606 5.77606
5.79338 0.206623 0.206623
5.77606 0.223937 1.47968
5.77677 0.223231 3
5.77606 0.223937 4.52032
5.79338 0.206623 5.79338
5.77606 1.47968 0.223937
5.75603 1.47809 1.47809
5.75676 1.47841 3
5.75603 1.47809 4.52191
5.77606 1.47968 5.77606
5.77677 3 0.223231
5.75676 3 1.47841
5.75745 3 3
5.75676 3 4.52159
5.77677 3 5.77677
5.77606 4.52032 0.223937
5.75603 4.52191 1.47809
5.75676 4.52159 3
5.75603 4.52191 4.52191
5.77606 4.52032 5.77606
5.79338 5.79338 0.206623
5.77606 5.77606 1.47968
5.77677 5.77677 3
5.77606 5.77606 4.52032
5.79338 5.79338 5.79338

VERTICES 125 250
1 0
1 1
1 2
1 3
1 4
1 5
1 6
1 7
1 8
1 9
1 10
1 11
1 12
1 13
1 14
1 15
1 16
1 17
1 18
1 19
1 20
1 21
1 22
1 23
1 24
1 25
1 26
1 27
1 28
1 29
1 30
1 31
1 32
1 33
1 34
1 35
1 36
1 37
1 38
1 39
1 40
1 41
1 42
1 43
1 44
1 45
1 46
1 47
1 48
1 49
1 50
1 51
1 52
1 53
1 54
1 55
1 56
1 57
1 58
1 59
1 60
1 61
1 62
1 63
1 64
1 65
1 66
1 67
1 68
1 69
1 70
1 71
1 72
1 73
1 74
1 75
1 76
1 77
1 78
1 79
1 80
1 81
1 82
1 83
1 84
1 85
1 86
1 87
1 88
1 89
1 90
1 91
1 92
1 93
1 94
1 95
1 96
1 97
1 98
1 99
1 100
1 101
1 102
1 103
1 104
1 105
1 106
1 107
1 108
1 109
1 110
1 111
1 112
1 113
1 114
1 115
1 116
1 117
1 118
1 119
1 120
1 121
1 122
1 123
1 124

POINT_DATA 125
SCALARS speed double 1
LOOKUP_TABLE default
1.63072
1.4577
1.4269
1.4577
1.63072
1.4577
1.15214
1.11698
1.15214
1.4577
1.4269
1.11698
1.08311
1.11698
1.4269
1.4577
1.15214
1.11698
1.15214
1.4577
1.63072
1.4577
1.4269
1.4577
1.63072
1.4577
1.15214
1.11698
1.15214
1.4577
1.15214
0.409793
0.327187
0.409793
1.15214
1.11698
0.327187
0.226177
0.327187
1.11698
1.15214
0.409793
0.327187
0.409793
1.15214
1.4577
1.15214
1.11698
1.15214
1.4577
1.4269
1.11698
1.08311
1.11698
1.4269
1.11698
0.327187
0.226177
0.327187
1.11698
1.08311
0.226177
1.51721e-14
0.226177
1.08311
1.11698
0.327187
0.226177
0.327187
1.11698
1.4269
1.11698
1.08311
1.11698
1.4269
1.4577
1.15214
1.11698
1.15214
1.4577
1.15214
0.409793
0.327187
0.409793
1.15214
1.11698
0.327187
0.226177
0.327187
1.11698
1.15214
0.409793
0.327187
0.409793
1.15214
1.4577
1.15214
1.11698
1.15214
1.4577
1.63072
1.4577
1.4269
1.4577
1.63072
1.4577
1.15214
1.11698
1.15214
1.4577
1.4269
1.11698
1.08311
1.11698
1.4269
1.4577
1.15214
1.11698
1.15214
1.4577
1.63072
1.4577
1.4269
1.4577
1.63072

SCALARS mass double 1
LOOKUP_TABLE default
1
1
1
1
1
1
1
1
1
1
1
1
1
1
1
1
1
1
1
1
1
1
1
1
1
1
1
1
1
1
1
1
1
1
1
1
1
1
1
1
1
1
1
1
1
1
1
1
1
1
1
1
1
1
1
1
1
1
1
1
1
1
1
1
1
1
1
1
1
1
1
1
1
1
1
1
1
1
1
1
1
1
1
1
1
1
1
1
1
1
1
1
1
1
1
1
1
1
1
1
1
1
1
1
1
1
1
1
1
1
1
1
1
1
1
1
1
1
1
1
1
1
1
1
1
