# vtk DataFile Version 3.0
Molecular dynamics particles
ASCII
DATASET POLYDATA
POINTS 125 double
0.0793325 0.0793325 0.0793325
0.0858663 0.0858663 1.49797
0.0859667 0.0859667 3
0.0858663 0.0858663 4.50203
0.0793325 0.0793325 5.92067
0.0858663 1.49797 0.0858663
0.0935135 1.49802 1.49802
0.0936686 1.49808 3
0.0935135 1.49802 4.50198
0.0858663 1.49797 5.91413
0.0859667 3 0.0859667
0.0936686 3 1.49808
0.0938359 3 3
0.0936686 3 4.50192
0.0859667 3 5.91403
0.0858663 4.50203 0.0858663
0.0935135 4.50198 1.49802
0.0936686 4.50192 3
0.0935135 4.50198 4.50198
0.0858663 4.50203 5.91413
0.0793325 5.92067 0.0793325
0.0858663 5.91413 1.49797
0.0859667 5.91403 3
0.0858663 5.91413 4.50203
0.0793325 5.92067 5.92067
1.49797 0.0858663 0.0858663
1.49802 0.0935135 1.49802
1.49808 0.0936686 3
1.49802 0.0935135 4.50198
1.49797 0.0858663 5.91413
1.49802 1.49802 0.0935135
1.49814 1.49814 1.49814
1.49821 1.49821 3
1.49814 1.49814 4.50186
1.49802 1.49802 5.90649
1.49808 3 0.0936686
1.49821 3 1.49821
1.4983 3 3
1.49821 3 4.50179
1.49808 3 5.90633
1.49802 4.50198 0.0935135
1.49814 4.50186 1.49814
1.49821 4.50179 3
1.49814 4.50186 4.50186
1.49802 4.50198 5.90649
1.49797 5.91413 0.0858663
1.49802 5.90649 1.49802
1.49808 5.90633 3
1.49802 5.90649 4.50198
1.49797 5.91413 5.91413
3 0.0859667 0.0859667
3 0.0936686 1.49808
3 0.0938359 3
3 0.0936686 4.50192
3 0.0859667 5.91403
3 1.49808 0.0936686
3 1.49821 1.49821
3 1.4983 3
3 1.49821 4.50179
3 1.49808 5.90633
3 3 0.0938359
3 3 1.4983
3 3 3
3 3 4.5017
3 3 5.90616
3 4.50192 0.0936686
3 4.50179 1.49821
3 4.5017 3
3 4.50179 4.50179
3 4.50192 5.90633
3 5.91403 0.0859667
3 5.90633 1.49808
3 5.90616 3
3 5.90633 4.50192
3 5.91403 5.91403
4.50203 0.0858663 0.0858663
4.50198 0.0935135 1.49802
4.50192 0.0936686 3
4.50198 0.0935135 4.50198
4.50203 0.0858663 5.91413
4.50198 1.49802 0.0935135
4.50186 1.49814 1.49814
4.50179 1.49821 3
4.50186 1.49814 4.50186
4.50198 1.49802 5.90649
4.50192 3 0.0936686
4.50179 3 1.49821
4.5017 3 3
4.50179 3 4.50179
4.50192 3 5.90633
4.50198 4.50198 0.0935135
4.50186 4.50186 1.49814
4.50179 4.50179 3
4.50186 4.50186 4.50186
4.50198 4.50198 5.90649
4.50203 5.91413 0.0858663
4.50198 5.90649 1.49802
4.50192 5.90633 3
4.50198 5.90649 4.50198
4.50203 5.91413 5.91413
5.92067 0.0793325 0.0793325
5.91413 0.0858663 1.49797
5.91403 0.0859667 3
5.91413 0.0858663 4.50203
5.92067 0.0793325 5.92067
5.91413 1.49797 0.0858663
5.90649 1.49802 1.49802
5.90633 1.49808 3
5.90649 1.49802 4.50198
5.91413 1.49797 5.91413
5.91403 3 0.0859667
5.90633 3 1.49808
5.90616 3 3
5.90633 3 4.50192
5.91403 3 5.91403
5.91413 4.50203 0.0858663
5.90649 4.50198 1.49802
5.90633 4.50192 3
5.90649 4.50198 4.50198
5.91413 4.50203 5.91413
5.92067 5.92067 0.0793325
5.91413 5.91413 1.49797
5.91403 5.91403 3
5.91413 5.91413 4.50203
5.92067 5.92067 5.92067

VERTICES 125 250
1 0
1 1
1 2
1 3
1 4
1 5
1 6
1 7
1 8
1 9
1 10
1 11
1 12
1 13
1 14
1 15
1 16
1 17
1 18
1 19
1 20
1 21
1 22
1 23
1 24
1 25
1 26
1 27
1 28
1 29
1 30
1 31
1 32
1 33
1 34
1 35
1 36
1 37
1 38
1 39
1 40
1 41
1 42
1 43
1 44
1 45
1 46
1 47
1 48
1 49
1 50
1 51
1 52
1 53
1 54
1 55
1 56
1 57
1 58
1 59
1 60
1 61
1 62
1 63
1 64
1 65
1 66
1 67
1 68
1 69
1 70
1 71
1 72
1 73
1 74
1 75
1 76
1 77
1 78
1 79
1 80
1 81
1 82
1 83
1 84
1 85
1 86
1 87
1 88
1 89
1 90
1 91
1 92
1 93
1 94
1 95
1 96
1 97
1 98
1 99
1 100
1 101
1 102
1 103
1 104
1 105
1 106
1 107
1 108
1 109
1 110
1 111
1 112
1 113
1 114
1 115
1 116
1 117
1 118
1 119
1 120
1 121
1 122
1 123
1 124

POINT_DATA 125
SCALARS speed double 1
LOOKUP_TABLE default
0.879828
0.779181
0.777543
0.779181
0.879828
0.779181
0.602256
0.600577
0.602256
0.779181
0.777543
0.600577
0.599008
0.600577
0.777543
0.779181
0.602256
0.600577
0.602256
0.779181
0.879828
0.779181
0.777543
0.779181
0.879828
0.779181
0.602256
0.600577
0.602256
0.779181
0.602256
0.07115
0.0574318
0.07115
0.602256
0.600577
0.0574318
0.0401121
0.0574318
0.600577
0.602256
0.07115
0.0574318
0.07115
0.602256
0.779181
0.602256
0.600577
0.602256
0.779181
0.777543
0.600577
0.599008
0.600577
0.777543
0.600577
0.0574318
0.0401121
0.0574318
0.600577
0.599008
0.0401121
1.0104e-14
0.0401121
0.599008
0.600577
0.0574318
0.0401121
0.0574318
0.600577
0.777543
0.600577
0.599008
0.600577
0.777543
0.779181
0.602256
0.600577
0.602256
0.779181
0.602256
0.07115
0.0574318
0.07115
0.602256
0.600577
0.0574318
0.0401121
0.0574318
0.600577
0.602256
0.07115
0.0574318
0.07115
0.602256
0.779181
0.602256
0.600577
0.602256
0.779181
0.879828
0.779181
0.777543
0.779181
0.879828
0.779181
0.602256
0.600577
0.602256
0.779181
0.777543
0.600577
0.599008
0.600577
0.777543
0.779181
0.602256
0.600577
0.602256
0.779181
0.879828
0.779181
0.777543
0.779181
0.879828

SCALARS mass double 1
LOOKUP_TABLE default
1
1
1
1
1
1
1
1
1
1
1
1
1
1
1
1
1
1
1
1
1
1
1
1
1
1
1
1
1
1
1
1
1
1
1
1
1
1
1
1
1
1
1
1
1
1
1
1
1
1
1
1
1
1
1
1
1
1
1
1
1
1
1
1
1
1
1
1
1
1
1
1
1
1
1
1
1
1
1
1
1
1
1
1
1
1
1
1
1
1
1
1
1
1
1
1
1
1
1
1
1
1
1
1
1
1
1
1
1
1
1
1
1
1
1
1
1
1
1
1
1
1
1
1
1
