# vtk DataFile Version 3.0
Molecular dynamics particles
ASCII
DATASET POLYDATA
POINTS 125 double
0.40883 0.40883 0.40883
0.457507 0.457507 1.77072
0.439465 0.439465 3
0.457507 0.457507 4.22928
0.40883 0.40883 5.59117
0.457507 1.77072 0.457507
0.526736 1.82997 1.82997
0.501301 1.81063 3
0.526736 1.82997 4.17003
0.457507 1.77072 5.54249
0.439465 3 0.439465
0.501301 3 1.81063
0.4808 3 3
0.501301 3 4.18937
0.439465 3 5.56054
0.457507 4.22928 0.457507
0.526736 4.17003 1.82997
0.501301 4.18937 3
0.526736 4.17003 4.17003
0.457507 4.22928 5.54249
0.40883 5.59117 0.40883
0.457507 5.54249 1.77072
0.439465 5.56054 3
0.457507 5.54249 4.22928
0.40883 5.59117 5.59117
1.77072 0.457507 0.457507
1.82997 0.526736 1.82997
1.81063 0.501301 3
1.82997 0.526736 4.17003
1.77072 0.457507 5.54249
1.82997 1.82997 0.526736
1.9017 1.9017 1.9017
1.87974 1.87974 3
1.9017 1.9017 4.0983
1.82997 1.82997 5.47326
1.81063 3 0.501301
1.87974 3 1.87974
1.86022 3 3
1.87974 3 4.12026
1.81063 3 5.4987
1.82997 4.17003 0.526736
1.9017 4.0983 1.9017
1.87974 4.12026 3
1.9017 4.0983 4.0983
1.82997 4.17003 5.47326
1.77072 5.54249 0.457507
1.82997 5.47326 1.82997
1.81063 5.4987 3
1.82997 5.47326 4.17003
1.77072 5.54249 5.54249
3 0.439465 0.439465
3 0.501301 1.81063
3 0.4808 3
3 0.501301 4.18937
3 0.439465 5.56054
3 1.81063 0.501301
3 1.87974 1.87974
3 1.86022 3
3 1.87974 4.12026
3 1.81063 5.4987
3 3 0.4808
3 3 1.86022
3 3 3
3 3 4.13978
3 3 5.5192
3 4.18937 0.501301
3 4.12026 1.87974
3 4.13978 3
3 4.12026 4.12026
3 4.18937 5.4987
3 5.56054 0.439465
3 5.4987 1.81063
3 5.5192 3
3 5.4987 4.18937
3 5.56054 5.56054
4.22928 0.457507 0.457507
4.17003 0.526736 1.82997
4.18937 0.501301 3
4.17003 0.526736 4.17003
4.22928 0.457507 5.54249
4.17003 1.82997 0.526736
4.0983 1.9017 1.9017
4.12026 1.87974 3
4.0983 1.9017 4.0983
4.17003 1.82997 5.47326
4.18937 3 0.501301
4.12026 3 1.87974
4.13978 3 3
4.12026 3 4.12026
4.18937 3 5.4987
4.17003 4.17003 0.526736
4.0983 4.0983 1.9017
4.12026 4.12026 3
4.0983 4.0983 4.0983
4.17003 4.17003 5.47326
4.22928 5.54249 0.457507
4.17003 5.47326 1.82997
4.18937 5.4987 3
4.17003 5.47326 4.17003
4.22928 5.54249 5.54249
5.59117 0.40883 0.40883
5.54249 0.457507 1.77072
5.56054 0.439465 3
5.54249 0.457507 4.22928
5.59117 0.40883 5.59117
5.54249 1.77072 0.457507
5.47326 1.82997 1.82997
5.4987 1.81063 3
5.47326 1.82997 4.17003
5.54249 1.77072 5.54249
5.56054 3 0.439465
5.4987 3 1.81063
5.5192 3 3
5.4987 3 4.18937
5.56054 3 5.56054
5.54249 4.22928 0.457507
5.47326 4.17003 1.82997
5.4987 4.18937 3
5.47326 4.17003 4.17003
5.54249 4.22928 5.54249
5.59117 5.59117 0.40883
5.54249 5.54249 1.77072
5.56054 5.56054 3
5.54249 5.54249 4.22928
5.59117 5.59117 5.59117

VERTICES 125 250
1 0
1 1
1 2
1 3
1 4
1 5
1 6
1 7
1 8
1 9
1 10
1 11
1 12
1 13
1 14
1 15
1 16
1 17
1 18
1 19
1 20
1 21
1 22
1 23
1 24
1 25
1 26
1 27
1 28
1 29
1 30
1 31
1 32
1 33
1 34
1 35
1 36
1 37
1 38
1 39
1 40
1 41
1 42
1 43
1 44
1 45
1 46
1 47
1 48
1 49
1 50
1 51
1 52
1 53
1 54
1 55
1 56
1 57
1 58
1 59
1 60
1 61
1 62
1 63
1 64
1 65
1 66
1 67
1 68
1 69
1 70
1 71
1 72
1 73
1 74
1 75
1 76
1 77
1 78
1 79
1 80
1 81
1 82
1 83
1 84
1 85
1 86
1 87
1 88
1 89
1 90
1 91
1 92
1 93
1 94
1 95
1 96
1 97
1 98
1 99
1 100
1 101
1 102
1 103
1 104
1 105
1 106
1 107
1 108
1 109
1 110
1 111
1 112
1 113
1 114
1 115
1 116
1 117
1 118
1 119
1 120
1 121
1 122
1 123
1 124

POINT_DATA 125
SCALARS speed double 1
LOOKUP_TABLE default
0.28604
1.46688
0.487736
1.46688
0.28604
1.46688
2.1968
1.56444
2.1968
1.46688
0.487736
1.56444
0.583279
1.56444
0.487736
1.46688
2.1968
1.56444
2.1968
1.46688
0.28604
1.46688
0.487736
1.46688
0.28604
1.46688
2.1968
1.56444
2.1968
1.46688
2.1968
2.69769
2.19148
2.69769
2.1968
1.56444
2.19148
1.53592
2.19148
1.56444
2.1968
2.69769
2.19148
2.69769
2.1968
1.46688
2.1968
1.56444
2.1968
1.46688
0.487736
1.56444
0.583279
1.56444
0.487736
1.56444
2.19148
1.53592
2.19148
1.56444
0.583279
1.53592
9.53705e-14
1.53592
0.583279
1.56444
2.19148
1.53592
2.19148
1.56444
0.487736
1.56444
0.583279
1.56444
0.487736
1.46688
2.1968
1.56444
2.1968
1.46688
2.1968
2.69769
2.19148
2.69769
2.1968
1.56444
2.19148
1.53592
2.19148
1.56444
2.1968
2.69769
2.19148
2.69769
2.1968
1.46688
2.1968
1.56444
2.1968
1.46688
0.28604
1.46688
0.487736
1.46688
0.28604
1.46688
2.1968
1.56444
2.1968
1.46688
0.487736
1.56444
0.583279
1.56444
0.487736
1.46688
2.1968
1.56444
2.1968
1.46688
0.28604
1.46688
0.487736
1.46688
0.28604

SCALARS mass double 1
LOOKUP_TABLE default
1
1
1
1
1
1
1
1
1
1
1
1
1
1
1
1
1
1
1
1
1
1
1
1
1
1
1
1
1
1
1
1
1
1
1
1
1
1
1
1
1
1
1
1
1
1
1
1
1
1
1
1
1
1
1
1
1
1
1
1
1
1
1
1
1
1
1
1
1
1
1
1
1
1
1
1
1
1
1
1
1
1
1
1
1
1
1
1
1
1
1
1
1
1
1
1
1
1
1
1
1
1
1
1
1
1
1
1
1
1
1
1
1
1
1
1
1
1
1
1
1
1
1
1
1
