# vtk DataFile Version 3.0
Molecular dynamics particles
ASCII
DATASET POLYDATA
POINTS 125 double
0.424031 0.424031 0.424031
0.435556 0.435556 1.52863
0.428825 0.428825 3
0.435556 0.435556 4.47137
0.424031 0.424031 5.57597
0.435556 1.52863 0.435556
0.45632 1.56831 1.56831
0.446247 1.55994 3
0.45632 1.56831 4.43169
0.435556 1.52863 5.56444
0.428825 3 0.428825
0.446247 3 1.55994
0.438049 3 3
0.446247 3 4.44006
0.428825 3 5.57117
0.435556 4.47137 0.435556
0.45632 4.43169 1.56831
0.446247 4.44006 3
0.45632 4.43169 4.43169
0.435556 4.47137 5.56444
0.424031 5.57597 0.424031
0.435556 5.56444 1.52863
0.428825 5.57117 3
0.435556 5.56444 4.47137
0.424031 5.57597 5.57597
1.52863 0.435556 0.435556
1.56831 0.45632 1.56831
1.55994 0.446247 3
1.56831 0.45632 4.43169
1.52863 0.435556 5.56444
1.56831 1.56831 0.45632
1.61665 1.61665 1.61665
1.60582 1.60582 3
1.61665 1.61665 4.38335
1.56831 1.56831 5.54368
1.55994 3 0.446247
1.60582 3 1.60582
1.59638 3 3
1.60582 3 4.39418
1.55994 3 5.55375
1.56831 4.43169 0.45632
1.61665 4.38335 1.61665
1.60582 4.39418 3
1.61665 4.38335 4.38335
1.56831 4.43169 5.54368
1.52863 5.56444 0.435556
1.56831 5.54368 1.56831
1.55994 5.55375 3
1.56831 5.54368 4.43169
1.52863 5.56444 5.56444
3 0.428825 0.428825
3 0.446247 1.55994
3 0.438049 3
3 0.446247 4.44006
3 0.428825 5.57117
3 1.55994 0.446247
3 1.60582 1.60582
3 1.59638 3
3 1.60582 4.39418
3 1.55994 5.55375
3 3 0.438049
3 3 1.59638
3 3 3
3 3 4.40362
3 3 5.56195
3 4.44006 0.446247
3 4.39418 1.60582
3 4.40362 3
3 4.39418 4.39418
3 4.44006 5.55375
3 5.57117 0.428825
3 5.55375 1.55994
3 5.56195 3
3 5.55375 4.44006
3 5.57117 5.57117
4.47137 0.435556 0.435556
4.43169 0.45632 1.56831
4.44006 0.446247 3
4.43169 0.45632 4.43169
4.47137 0.435556 5.56444
4.43169 1.56831 0.45632
4.38335 1.61665 1.61665
4.39418 1.60582 3
4.38335 1.61665 4.38335
4.43169 1.56831 5.54368
4.44006 3 0.446247
4.39418 3 1.60582
4.40362 3 3
4.39418 3 4.39418
4.44006 3 5.55375
4.43169 4.43169 0.45632
4.38335 4.38335 1.61665
4.39418 4.39418 3
4.38335 4.38335 4.38335
4.43169 4.43169 5.54368
4.47137 5.56444 0.435556
4.43169 5.54368 1.56831
4.44006 5.55375 3
4.43169 5.54368 4.43169
4.47137 5.56444 5.56444
5.57597 0.424031 0.424031
5.56444 0.435556 1.52863
5.57117 0.428825 3
5.56444 0.435556 4.47137
5.57597 0.424031 5.57597
5.56444 1.52863 0.435556
5.54368 1.56831 1.56831
5.55375 1.55994 3
5.54368 1.56831 4.43169
5.56444 1.52863 5.56444
5.57117 3 0.428825
5.55375 3 1.55994
5.56195 3 3
5.55375 3 4.44006
5.57117 3 5.57117
5.56444 4.47137 0.435556
5.54368 4.43169 1.56831
5.55375 4.44006 3
5.54368 4.43169 4.43169
5.56444 4.47137 5.56444
5.57597 5.57597 0.424031
5.56444 5.56444 1.52863
5.57117 5.57117 3
5.56444 5.56444 4.47137
5.57597 5.57597 5.57597

VERTICES 125 250
1 0
1 1
1 2
1 3
1 4
1 5
1 6
1 7
1 8
1 9
1 10
1 11
1 12
1 13
1 14
1 15
1 16
1 17
1 18
1 19
1 20
1 21
1 22
1 23
1 24
1 25
1 26
1 27
1 28
1 29
1 30
1 31
1 32
1 33
1 34
1 35
1 36
1 37
1 38
1 39
1 40
1 41
1 42
1 43
1 44
1 45
1 46
1 47
1 48
1 49
1 50
1 51
1 52
1 53
1 54
1 55
1 56
1 57
1 58
1 59
1 60
1 61
1 62
1 63
1 64
1 65
1 66
1 67
1 68
1 69
1 70
1 71
1 72
1 73
1 74
1 75
1 76
1 77
1 78
1 79
1 80
1 81
1 82
1 83
1 84
1 85
1 86
1 87
1 88
1 89
1 90
1 91
1 92
1 93
1 94
1 95
1 96
1 97
1 98
1 99
1 100
1 101
1 102
1 103
1 104
1 105
1 106
1 107
1 108
1 109
1 110
1 111
1 112
1 113
1 114
1 115
1 116
1 117
1 118
1 119
1 120
1 121
1 122
1 123
1 124

POINT_DATA 125
SCALARS speed double 1
LOOKUP_TABLE default
0.527073
1.3724
0.302074
1.3724
0.527073
1.3724
2.08922
1.39937
2.08922
1.3724
0.302074
1.39937
0.091665
1.39937
0.302074
1.3724
2.08922
1.39937
2.08922
1.3724
0.527073
1.3724
0.302074
1.3724
0.527073
1.3724
2.08922
1.39937
2.08922
1.3724
2.08922
2.78752
2.15899
2.78752
2.08922
1.39937
2.15899
1.45212
2.15899
1.39937
2.08922
2.78752
2.15899
2.78752
2.08922
1.3724
2.08922
1.39937
2.08922
1.3724
0.302074
1.39937
0.091665
1.39937
0.302074
1.39937
2.15899
1.45212
2.15899
1.39937
0.091665
1.45212
1.31528e-14
1.45212
0.091665
1.39937
2.15899
1.45212
2.15899
1.39937
0.302074
1.39937
0.091665
1.39937
0.302074
1.3724
2.08922
1.39937
2.08922
1.3724
2.08922
2.78752
2.15899
2.78752
2.08922
1.39937
2.15899
1.45212
2.15899
1.39937
2.08922
2.78752
2.15899
2.78752
2.08922
1.3724
2.08922
1.39937
2.08922
1.3724
0.527073
1.3724
0.302074
1.3724
0.527073
1.3724
2.08922
1.39937
2.08922
1.3724
0.302074
1.39937
0.091665
1.39937
0.302074
1.3724
2.08922
1.39937
2.08922
1.3724
0.527073
1.3724
0.302074
1.3724
0.527073

SCALARS mass double 1
LOOKUP_TABLE default
1
1
1
1
1
1
1
1
1
1
1
1
1
1
1
1
1
1
1
1
1
1
1
1
1
1
1
1
1
1
1
1
1
1
1
1
1
1
1
1
1
1
1
1
1
1
1
1
1
1
1
1
1
1
1
1
1
1
1
1
1
1
1
1
1
1
1
1
1
1
1
1
1
1
1
1
1
1
1
1
1
1
1
1
1
1
1
1
1
1
1
1
1
1
1
1
1
1
1
1
1
1
1
1
1
1
1
1
1
1
1
1
1
1
1
1
1
1
1
1
1
1
1
1
1
