# vtk DataFile Version 3.0
Molecular dynamics particles
ASCII
DATASET POLYDATA
POINTS 125 double
0.404021 0.404021 0.404021
0.434742 0.434742 1.66391
0.421649 0.421649 3
0.434742 0.434742 4.33609
0.404021 0.404021 5.59598
0.434742 1.66391 0.434742
0.481191 1.71384 1.71384
0.461954 1.69882 3
0.481191 1.71384 4.28616
0.434742 1.66391 5.56526
0.421649 3 0.421649
0.461954 3 1.69882
0.446415 3 3
0.461954 3 4.30118
0.421649 3 5.57835
0.434742 4.33609 0.434742
0.481191 4.28616 1.71384
0.461954 4.30118 3
0.481191 4.28616 4.28616
0.434742 4.33609 5.56526
0.404021 5.59598 0.404021
0.434742 5.56526 1.66391
0.421649 5.57835 3
0.434742 5.56526 4.33609
0.404021 5.59598 5.59598
1.66391 0.434742 0.434742
1.71384 0.481191 1.71384
1.69882 0.461954 3
1.71384 0.481191 4.28616
1.66391 0.434742 5.56526
1.71384 1.71384 0.481191
1.77515 1.77515 1.77515
1.75689 1.75689 3
1.77515 1.77515 4.22485
1.71384 1.71384 5.51881
1.69882 3 0.461954
1.75689 3 1.75689
1.74085 3 3
1.75689 3 4.24311
1.69882 3 5.53805
1.71384 4.28616 0.481191
1.77515 4.22485 1.77515
1.75689 4.24311 3
1.77515 4.22485 4.22485
1.71384 4.28616 5.51881
1.66391 5.56526 0.434742
1.71384 5.51881 1.71384
1.69882 5.53805 3
1.71384 5.51881 4.28616
1.66391 5.56526 5.56526
3 0.421649 0.421649
3 0.461954 1.69882
3 0.446415 3
3 0.461954 4.30118
3 0.421649 5.57835
3 1.69882 0.461954
3 1.75689 1.75689
3 1.74085 3
3 1.75689 4.24311
3 1.69882 5.53805
3 3 0.446415
3 3 1.74085
3 3 3
3 3 4.25915
3 3 5.55359
3 4.30118 0.461954
3 4.24311 1.75689
3 4.25915 3
3 4.24311 4.24311
3 4.30118 5.53805
3 5.57835 0.421649
3 5.53805 1.69882
3 5.55359 3
3 5.53805 4.30118
3 5.57835 5.57835
4.33609 0.434742 0.434742
4.28616 0.481191 1.71384
4.30118 0.461954 3
4.28616 0.481191 4.28616
4.33609 0.434742 5.56526
4.28616 1.71384 0.481191
4.22485 1.77515 1.77515
4.24311 1.75689 3
4.22485 1.77515 4.22485
4.28616 1.71384 5.51881
4.30118 3 0.461954
4.24311 3 1.75689
4.25915 3 3
4.24311 3 4.24311
4.30118 3 5.53805
4.28616 4.28616 0.481191
4.22485 4.22485 1.77515
4.24311 4.24311 3
4.22485 4.22485 4.22485
4.28616 4.28616 5.51881
4.33609 5.56526 0.434742
4.28616 5.51881 1.71384
4.30118 5.53805 3
4.28616 5.51881 4.28616
4.33609 5.56526 5.56526
5.59598 0.404021 0.404021
5.56526 0.434742 1.66391
5.57835 0.421649 3
5.56526 0.434742 4.33609
5.59598 0.404021 5.59598
5.56526 1.66391 0.434742
5.51881 1.71384 1.71384
5.53805 1.69882 3
5.51881 1.71384 4.28616
5.56526 1.66391 5.56526
5.57835 3 0.421649
5.53805 3 1.69882
5.55359 3 3
5.53805 3 4.30118
5.57835 3 5.57835
5.56526 4.33609 0.434742
5.51881 4.28616 1.71384
5.53805 4.30118 3
5.51881 4.28616 4.28616
5.56526 4.33609 5.56526
5.59598 5.59598 0.404021
5.56526 5.56526 1.66391
5.57835 5.57835 3
5.56526 5.56526 4.33609
5.59598 5.59598 5.59598

VERTICES 125 250
1 0
1 1
1 2
1 3
1 4
1 5
1 6
1 7
1 8
1 9
1 10
1 11
1 12
1 13
1 14
1 15
1 16
1 17
1 18
1 19
1 20
1 21
1 22
1 23
1 24
1 25
1 26
1 27
1 28
1 29
1 30
1 31
1 32
1 33
1 34
1 35
1 36
1 37
1 38
1 39
1 40
1 41
1 42
1 43
1 44
1 45
1 46
1 47
1 48
1 49
1 50
1 51
1 52
1 53
1 54
1 55
1 56
1 57
1 58
1 59
1 60
1 61
1 62
1 63
1 64
1 65
1 66
1 67
1 68
1 69
1 70
1 71
1 72
1 73
1 74
1 75
1 76
1 77
1 78
1 79
1 80
1 81
1 82
1 83
1 84
1 85
1 86
1 87
1 88
1 89
1 90
1 91
1 92
1 93
1 94
1 95
1 96
1 97
1 98
1 99
1 100
1 101
1 102
1 103
1 104
1 105
1 106
1 107
1 108
1 109
1 110
1 111
1 112
1 113
1 114
1 115
1 116
1 117
1 118
1 119
1 120
1 121
1 122
1 123
1 124

POINT_DATA 125
SCALARS speed double 1
LOOKUP_TABLE default
0.0938874
1.34971
0.132862
1.34971
0.0938874
1.34971
2.07803
1.41958
2.07803
1.34971
0.132862
1.41958
0.274924
1.41958
0.132862
1.34971
2.07803
1.41958
2.07803
1.34971
0.0938874
1.34971
0.132862
1.34971
0.0938874
1.34971
2.07803
1.41958
2.07803
1.34971
2.07803
2.73112
2.13609
2.73112
2.07803
1.41958
2.13609
1.45144
2.13609
1.41958
2.07803
2.73112
2.13609
2.73112
2.07803
1.34971
2.07803
1.41958
2.07803
1.34971
0.132862
1.41958
0.274924
1.41958
0.132862
1.41958
2.13609
1.45144
2.13609
1.41958
0.274924
1.45144
4.1897e-14
1.45144
0.274924
1.41958
2.13609
1.45144
2.13609
1.41958
0.132862
1.41958
0.274924
1.41958
0.132862
1.34971
2.07803
1.41958
2.07803
1.34971
2.07803
2.73112
2.13609
2.73112
2.07803
1.41958
2.13609
1.45144
2.13609
1.41958
2.07803
2.73112
2.13609
2.73112
2.07803
1.34971
2.07803
1.41958
2.07803
1.34971
0.0938874
1.34971
0.132862
1.34971
0.0938874
1.34971
2.07803
1.41958
2.07803
1.34971
0.132862
1.41958
0.274924
1.41958
0.132862
1.34971
2.07803
1.41958
2.07803
1.34971
0.0938874
1.34971
0.132862
1.34971
0.0938874

SCALARS mass double 1
LOOKUP_TABLE default
1
1
1
1
1
1
1
1
1
1
1
1
1
1
1
1
1
1
1
1
1
1
1
1
1
1
1
1
1
1
1
1
1
1
1
1
1
1
1
1
1
1
1
1
1
1
1
1
1
1
1
1
1
1
1
1
1
1
1
1
1
1
1
1
1
1
1
1
1
1
1
1
1
1
1
1
1
1
1
1
1
1
1
1
1
1
1
1
1
1
1
1
1
1
1
1
1
1
1
1
1
1
1
1
1
1
1
1
1
1
1
1
1
1
1
1
1
1
1
1
1
1
1
1
1
