# vtk DataFile Version 3.0
Molecular dynamics particles
ASCII
DATASET POLYDATA
POINTS 125 double
0.140406 0.140406 0.140406
0.152087 0.152087 1.49145
0.151983 0.151983 3
0.152087 0.152087 4.50855
0.140406 0.140406 5.85959
0.152087 1.49145 0.152087
0.165704 1.49096 1.49096
0.165648 1.49109 3
0.165704 1.49096 4.50904
0.152087 1.49145 5.84791
0.151983 3 0.151983
0.165648 3 1.49109
0.165614 3 3
0.165648 3 4.50891
0.151983 3 5.84802
0.152087 4.50855 0.152087
0.165704 4.50904 1.49096
0.165648 4.50891 3
0.165704 4.50904 4.50904
0.152087 4.50855 5.84791
0.140406 5.85959 0.140406
0.152087 5.84791 1.49145
0.151983 5.84802 3
0.152087 5.84791 4.50855
0.140406 5.85959 5.85959
1.49145 0.152087 0.152087
1.49096 0.165704 1.49096
1.49109 0.165648 3
1.49096 0.165704 4.50904
1.49145 0.152087 5.84791
1.49096 1.49096 0.165704
1.4905 1.4905 1.4905
1.49066 1.49066 3
1.4905 1.4905 4.5095
1.49096 1.49096 5.8343
1.49109 3 0.165648
1.49066 3 1.49066
1.49083 3 3
1.49066 3 4.50934
1.49109 3 5.83435
1.49096 4.50904 0.165704
1.4905 4.5095 1.4905
1.49066 4.50934 3
1.4905 4.5095 4.5095
1.49096 4.50904 5.8343
1.49145 5.84791 0.152087
1.49096 5.8343 1.49096
1.49109 5.83435 3
1.49096 5.8343 4.50904
1.49145 5.84791 5.84791
3 0.151983 0.151983
3 0.165648 1.49109
3 0.165614 3
3 0.165648 4.50891
3 0.151983 5.84802
3 1.49109 0.165648
3 1.49066 1.49066
3 1.49083 3
3 1.49066 4.50934
3 1.49109 5.83435
3 3 0.165614
3 3 1.49083
3 3 3
3 3 4.50917
3 3 5.83439
3 4.50891 0.165648
3 4.50934 1.49066
3 4.50917 3
3 4.50934 4.50934
3 4.50891 5.83435
3 5.84802 0.151983
3 5.83435 1.49109
3 5.83439 3
3 5.83435 4.50891
3 5.84802 5.84802
4.50855 0.152087 0.152087
4.50904 0.165704 1.49096
4.50891 0.165648 3
4.50904 0.165704 4.50904
4.50855 0.152087 5.84791
4.50904 1.49096 0.165704
4.5095 1.4905 1.4905
4.50934 1.49066 3
4.5095 1.4905 4.5095
4.50904 1.49096 5.8343
4.50891 3 0.165648
4.50934 3 1.49066
4.50917 3 3
4.50934 3 4.50934
4.50891 3 5.83435
4.50904 4.50904 0.165704
4.5095 4.5095 1.4905
4.50934 4.50934 3
4.5095 4.5095 4.5095
4.50904 4.50904 5.8343
4.50855 5.84791 0.152087
4.50904 5.8343 1.49096
4.50891 5.83435 3
4.50904 5.8343 4.50904
4.50855 5.84791 5.84791
5.85959 0.140406 0.140406
5.84791 0.152087 1.49145
5.84802 0.151983 3
5.84791 0.152087 4.50855
5.85959 0.140406 5.85959
5.84791 1.49145 0.152087
5.8343 1.49096 1.49096
5.83435 1.49109 3
5.8343 1.49096 4.50904
5.84791 1.49145 5.84791
5.84802 3 0.151983
5.83435 3 1.49109
5.83439 3 3
5.83435 3 4.50891
5.84802 3 5.84802
5.84791 4.50855 0.152087
5.8343 4.50904 1.49096
5.83435 4.50891 3
5.8343 4.50904 4.50904
5.84791 4.50855 5.84791
5.85959 5.85959 0.140406
5.84791 5.84791 1.49145
5.84802 5.84802 3
5.84791 5.84791 4.50855
5.85959 5.85959 5.85959

VERTICES 125 250
1 0
1 1
1 2
1 3
1 4
1 5
1 6
1 7
1 8
1 9
1 10
1 11
1 12
1 13
1 14
1 15
1 16
1 17
1 18
1 19
1 20
1 21
1 22
1 23
1 24
1 25
1 26
1 27
1 28
1 29
1 30
1 31
1 32
1 33
1 34
1 35
1 36
1 37
1 38
1 39
1 40
1 41
1 42
1 43
1 44
1 45
1 46
1 47
1 48
1 49
1 50
1 51
1 52
1 53
1 54
1 55
1 56
1 57
1 58
1 59
1 60
1 61
1 62
1 63
1 64
1 65
1 66
1 67
1 68
1 69
1 70
1 71
1 72
1 73
1 74
1 75
1 76
1 77
1 78
1 79
1 80
1 81
1 82
1 83
1 84
1 85
1 86
1 87
1 88
1 89
1 90
1 91
1 92
1 93
1 94
1 95
1 96
1 97
1 98
1 99
1 100
1 101
1 102
1 103
1 104
1 105
1 106
1 107
1 108
1 109
1 110
1 111
1 112
1 113
1 114
1 115
1 116
1 117
1 118
1 119
1 120
1 121
1 122
1 123
1 124

POINT_DATA 125
SCALARS speed double 1
LOOKUP_TABLE default
1.25115
1.11309
1.10244
1.11309
1.25115
1.11309
0.868998
0.857084
0.868998
1.11309
1.10244
0.857084
0.845503
0.857084
1.10244
1.11309
0.868998
0.857084
0.868998
1.11309
1.25115
1.11309
1.10244
1.11309
1.25115
1.11309
0.868998
0.857084
0.868998
1.11309
0.868998
0.211099
0.170175
0.211099
0.868998
0.857084
0.170175
0.118753
0.170175
0.857084
0.868998
0.211099
0.170175
0.211099
0.868998
1.11309
0.868998
0.857084
0.868998
1.11309
1.10244
0.857084
0.845503
0.857084
1.10244
0.857084
0.170175
0.118753
0.170175
0.857084
0.845503
0.118753
1.20134e-14
0.118753
0.845503
0.857084
0.170175
0.118753
0.170175
0.857084
1.10244
0.857084
0.845503
0.857084
1.10244
1.11309
0.868998
0.857084
0.868998
1.11309
0.868998
0.211099
0.170175
0.211099
0.868998
0.857084
0.170175
0.118753
0.170175
0.857084
0.868998
0.211099
0.170175
0.211099
0.868998
1.11309
0.868998
0.857084
0.868998
1.11309
1.25115
1.11309
1.10244
1.11309
1.25115
1.11309
0.868998
0.857084
0.868998
1.11309
1.10244
0.857084
0.845503
0.857084
1.10244
1.11309
0.868998
0.857084
0.868998
1.11309
1.25115
1.11309
1.10244
1.11309
1.25115

SCALARS mass double 1
LOOKUP_TABLE default
1
1
1
1
1
1
1
1
1
1
1
1
1
1
1
1
1
1
1
1
1
1
1
1
1
1
1
1
1
1
1
1
1
1
1
1
1
1
1
1
1
1
1
1
1
1
1
1
1
1
1
1
1
1
1
1
1
1
1
1
1
1
1
1
1
1
1
1
1
1
1
1
1
1
1
1
1
1
1
1
1
1
1
1
1
1
1
1
1
1
1
1
1
1
1
1
1
1
1
1
1
1
1
1
1
1
1
1
1
1
1
1
1
1
1
1
1
1
1
1
1
1
1
1
1
