# vtk DataFile Version 3.0
Molecular dynamics particles
ASCII
DATASET POLYDATA
POINTS 125 double
0.013668 0.013668 0.013668
0.0147816 0.0147816 1.50017
0.0148233 0.0148233 3
0.0147816 0.0147816 4.49983
0.013668 0.013668 5.98633
0.0147816 1.50017 0.0147816
0.0160894 1.50023 1.50023
0.0161446 1.50024 3
0.0160894 1.50023 4.49977
0.0147816 1.50017 5.98522
0.0148233 3 0.0148233
0.0161446 3 1.50024
0.0162024 3 3
0.0161446 3 4.49976
0.0148233 3 5.98518
0.0147816 4.49983 0.0147816
0.0160894 4.49977 1.50023
0.0161446 4.49976 3
0.0160894 4.49977 4.49977
0.0147816 4.49983 5.98522
0.013668 5.98633 0.013668
0.0147816 5.98522 1.50017
0.0148233 5.98518 3
0.0147816 5.98522 4.49983
0.013668 5.98633 5.98633
1.50017 0.0147816 0.0147816
1.50023 0.0160894 1.50023
1.50024 0.0161446 3
1.50023 0.0160894 4.49977
1.50017 0.0147816 5.98522
1.50023 1.50023 0.0160894
1.50032 1.50032 1.50032
1.50034 1.50034 3
1.50032 1.50032 4.49968
1.50023 1.50023 5.98391
1.50024 3 0.0161446
1.50034 3 1.50034
1.50036 3 3
1.50034 3 4.49966
1.50024 3 5.98386
1.50023 4.49977 0.0160894
1.50032 4.49968 1.50032
1.50034 4.49966 3
1.50032 4.49968 4.49968
1.50023 4.49977 5.98391
1.50017 5.98522 0.0147816
1.50023 5.98391 1.50023
1.50024 5.98386 3
1.50023 5.98391 4.49977
1.50017 5.98522 5.98522
3 0.0148233 0.0148233
3 0.0161446 1.50024
3 0.0162024 3
3 0.0161446 4.49976
3 0.0148233 5.98518
3 1.50024 0.0161446
3 1.50034 1.50034
3 1.50036 3
3 1.50034 4.49966
3 1.50024 5.98386
3 3 0.0162024
3 3 1.50036
3 3 3
3 3 4.49964
3 3 5.9838
3 4.49976 0.0161446
3 4.49966 1.50034
3 4.49964 3
3 4.49966 4.49966
3 4.49976 5.98386
3 5.98518 0.0148233
3 5.98386 1.50024
3 5.9838 3
3 5.98386 4.49976
3 5.98518 5.98518
4.49983 0.0147816 0.0147816
4.49977 0.0160894 1.50023
4.49976 0.0161446 3
4.49977 0.0160894 4.49977
4.49983 0.0147816 5.98522
4.49977 1.50023 0.0160894
4.49968 1.50032 1.50032
4.49966 1.50034 3
4.49968 1.50032 4.49968
4.49977 1.50023 5.98391
4.49976 3 0.0161446
4.49966 3 1.50034
4.49964 3 3
4.49966 3 4.49966
4.49976 3 5.98386
4.49977 4.49977 0.0160894
4.49968 4.49968 1.50032
4.49966 4.49966 3
4.49968 4.49968 4.49968
4.49977 4.49977 5.98391
4.49983 5.98522 0.0147816
4.49977 5.98391 1.50023
4.49976 5.98386 3
4.49977 5.98391 4.49977
4.49983 5.98522 5.98522
5.98633 0.013668 0.013668
5.98522 0.0147816 1.50017
5.98518 0.0148233 3
5.98522 0.0147816 4.49983
5.98633 0.013668 5.98633
5.98522 1.50017 0.0147816
5.98391 1.50023 1.50023
5.98386 1.50024 3
5.98391 1.50023 4.49977
5.98522 1.50017 5.98522
5.98518 3 0.0148233
5.98386 3 1.50024
5.9838 3 3
5.98386 3 4.49976
5.98518 3 5.98518
5.98522 4.49983 0.0147816
5.98391 4.49977 1.50023
5.98386 4.49976 3
5.98391 4.49977 4.49977
5.98522 4.49983 5.98522
5.98633 5.98633 0.013668
5.98522 5.98522 1.50017
5.98518 5.98518 3
5.98522 5.98522 4.49983
5.98633 5.98633 5.98633

VERTICES 125 250
1 0
1 1
1 2
1 3
1 4
1 5
1 6
1 7
1 8
1 9
1 10
1 11
1 12
1 13
1 14
1 15
1 16
1 17
1 18
1 19
1 20
1 21
1 22
1 23
1 24
1 25
1 26
1 27
1 28
1 29
1 30
1 31
1 32
1 33
1 34
1 35
1 36
1 37
1 38
1 39
1 40
1 41
1 42
1 43
1 44
1 45
1 46
1 47
1 48
1 49
1 50
1 51
1 52
1 53
1 54
1 55
1 56
1 57
1 58
1 59
1 60
1 61
1 62
1 63
1 64
1 65
1 66
1 67
1 68
1 69
1 70
1 71
1 72
1 73
1 74
1 75
1 76
1 77
1 78
1 79
1 80
1 81
1 82
1 83
1 84
1 85
1 86
1 87
1 88
1 89
1 90
1 91
1 92
1 93
1 94
1 95
1 96
1 97
1 98
1 99
1 100
1 101
1 102
1 103
1 104
1 105
1 106
1 107
1 108
1 109
1 110
1 111
1 112
1 113
1 114
1 115
1 116
1 117
1 118
1 119
1 120
1 121
1 122
1 123
1 124

POINT_DATA 125
SCALARS speed double 1
LOOKUP_TABLE default
0.341252
0.301383
0.302138
0.301383
0.341252
0.301383
0.232001
0.232715
0.232001
0.301383
0.302138
0.232715
0.233461
0.232715
0.302138
0.301383
0.232001
0.232715
0.232001
0.301383
0.341252
0.301383
0.302138
0.301383
0.341252
0.301383
0.232001
0.232715
0.232001
0.301383
0.232001
0.00474472
0.00417875
0.00474472
0.232001
0.232715
0.00417875
0.00318616
0.00417875
0.232715
0.232001
0.00474472
0.00417875
0.00474472
0.232001
0.301383
0.232001
0.232715
0.232001
0.301383
0.302138
0.232715
0.233461
0.232715
0.302138
0.232715
0.00417875
0.00318616
0.00417875
0.232715
0.233461
0.00318616
2.55876e-15
0.00318616
0.233461
0.232715
0.00417875
0.00318616
0.00417875
0.232715
0.302138
0.232715
0.233461
0.232715
0.302138
0.301383
0.232001
0.232715
0.232001
0.301383
0.232001
0.00474472
0.00417875
0.00474472
0.232001
0.232715
0.00417875
0.00318616
0.00417875
0.232715
0.232001
0.00474472
0.00417875
0.00474472
0.232001
0.301383
0.232001
0.232715
0.232001
0.301383
0.341252
0.301383
0.302138
0.301383
0.341252
0.301383
0.232001
0.232715
0.232001
0.301383
0.302138
0.232715
0.233461
0.232715
0.302138
0.301383
0.232001
0.232715
0.232001
0.301383
0.341252
0.301383
0.302138
0.301383
0.341252

SCALARS mass double 1
LOOKUP_TABLE default
1
1
1
1
1
1
1
1
1
1
1
1
1
1
1
1
1
1
1
1
1
1
1
1
1
1
1
1
1
1
1
1
1
1
1
1
1
1
1
1
1
1
1
1
1
1
1
1
1
1
1
1
1
1
1
1
1
1
1
1
1
1
1
1
1
1
1
1
1
1
1
1
1
1
1
1
1
1
1
1
1
1
1
1
1
1
1
1
1
1
1
1
1
1
1
1
1
1
1
1
1
1
1
1
1
1
1
1
1
1
1
1
1
1
1
1
1
1
1
1
1
1
1
1
1
