# vtk DataFile Version 3.0
Molecular dynamics particles
ASCII
DATASET POLYDATA
POINTS 125 double
0.434294 0.434294 0.434294
0.445429 0.445429 1.44806
0.44012 0.44012 3
0.445429 0.445429 4.55194
0.434294 0.434294 5.56571
0.445429 1.44806 0.445429
0.457516 1.47223 1.47223
0.451591 1.4702 3
0.457516 1.47223 4.52777
0.445429 1.44806 5.55457
0.44012 3 0.44012
0.451591 3 1.4702
0.446345 3 3
0.451591 3 4.5298
0.44012 3 5.55988
0.445429 4.55194 0.445429
0.457516 4.52777 1.47223
0.451591 4.5298 3
0.457516 4.52777 4.52777
0.445429 4.55194 5.55457
0.434294 5.56571 0.434294
0.445429 5.55457 1.44806
0.44012 5.55988 3
0.445429 5.55457 4.55194
0.434294 5.56571 5.56571
1.44806 0.445429 0.445429
1.47223 0.457516 1.47223
1.4702 0.451591 3
1.47223 0.457516 4.52777
1.44806 0.445429 5.55457
1.47223 1.47223 0.457516
1.50662 1.50662 1.50662
1.50237 1.50237 3
1.50662 1.50662 4.49338
1.47223 1.47223 5.54248
1.4702 3 0.451591
1.50237 3 1.50237
1.49889 3 3
1.50237 3 4.49763
1.4702 3 5.54841
1.47223 4.52777 0.457516
1.50662 4.49338 1.50662
1.50237 4.49763 3
1.50662 4.49338 4.49338
1.47223 4.52777 5.54248
1.44806 5.55457 0.445429
1.47223 5.54248 1.47223
1.4702 5.54841 3
1.47223 5.54248 4.52777
1.44806 5.55457 5.55457
3 0.44012 0.44012
3 0.451591 1.4702
3 0.446345 3
3 0.451591 4.5298
3 0.44012 5.55988
3 1.4702 0.451591
3 1.50237 1.50237
3 1.49889 3
3 1.50237 4.49763
3 1.4702 5.54841
3 3 0.446345
3 3 1.49889
3 3 3
3 3 4.50111
3 3 5.55365
3 4.5298 0.451591
3 4.49763 1.50237
3 4.50111 3
3 4.49763 4.49763
3 4.5298 5.54841
3 5.55988 0.44012
3 5.54841 1.4702
3 5.55365 3
3 5.54841 4.5298
3 5.55988 5.55988
4.55194 0.445429 0.445429
4.52777 0.457516 1.47223
4.5298 0.451591 3
4.52777 0.457516 4.52777
4.55194 0.445429 5.55457
4.52777 1.47223 0.457516
4.49338 1.50662 1.50662
4.49763 1.50237 3
4.49338 1.50662 4.49338
4.52777 1.47223 5.54248
4.5298 3 0.451591
4.49763 3 1.50237
4.50111 3 3
4.49763 3 4.49763
4.5298 3 5.54841
4.52777 4.52777 0.457516
4.49338 4.49338 1.50662
4.49763 4.49763 3
4.49338 4.49338 4.49338
4.52777 4.52777 5.54248
4.55194 5.55457 0.445429
4.52777 5.54248 1.47223
4.5298 5.54841 3
4.52777 5.54248 4.52777
4.55194 5.55457 5.55457
5.56571 0.434294 0.434294
5.55457 0.445429 1.44806
5.55988 0.44012 3
5.55457 0.445429 4.55194
5.56571 0.434294 5.56571
5.55457 1.44806 0.445429
5.54248 1.47223 1.47223
5.54841 1.4702 3
5.54248 1.47223 4.52777
5.55457 1.44806 5.55457
5.55988 3 0.44012
5.54841 3 1.4702
5.55365 3 3
5.54841 3 4.5298
5.55988 3 5.55988
5.55457 4.55194 0.445429
5.54248 4.52777 1.47223
5.54841 4.5298 3
5.54248 4.52777 4.52777
5.55457 4.55194 5.55457
5.56571 5.56571 0.434294
5.55457 5.55457 1.44806
5.55988 5.55988 3
5.55457 5.55457 4.55194
5.56571 5.56571 5.56571

VERTICES 125 250
1 0
1 1
1 2
1 3
1 4
1 5
1 6
1 7
1 8
1 9
1 10
1 11
1 12
1 13
1 14
1 15
1 16
1 17
1 18
1 19
1 20
1 21
1 22
1 23
1 24
1 25
1 26
1 27
1 28
1 29
1 30
1 31
1 32
1 33
1 34
1 35
1 36
1 37
1 38
1 39
1 40
1 41
1 42
1 43
1 44
1 45
1 46
1 47
1 48
1 49
1 50
1 51
1 52
1 53
1 54
1 55
1 56
1 57
1 58
1 59
1 60
1 61
1 62
1 63
1 64
1 65
1 66
1 67
1 68
1 69
1 70
1 71
1 72
1 73
1 74
1 75
1 76
1 77
1 78
1 79
1 80
1 81
1 82
1 83
1 84
1 85
1 86
1 87
1 88
1 89
1 90
1 91
1 92
1 93
1 94
1 95
1 96
1 97
1 98
1 99
1 100
1 101
1 102
1 103
1 104
1 105
1 106
1 107
1 108
1 109
1 110
1 111
1 112
1 113
1 114
1 115
1 116
1 117
1 118
1 119
1 120
1 121
1 122
1 123
1 124

POINT_DATA 125
SCALARS speed double 1
LOOKUP_TABLE default
0.375704
0.763768
0.0705324
0.763768
0.375704
0.763768
1.57551
1.01858
1.57551
0.763768
0.0705324
1.01858
0.035687
1.01858
0.0705324
0.763768
1.57551
1.01858
1.57551
0.763768
0.375704
0.763768
0.0705324
0.763768
0.375704
0.763768
1.57551
1.01858
1.57551
0.763768
1.57551
2.48165
1.87796
2.48165
1.57551
1.01858
1.87796
1.23406
1.87796
1.01858
1.57551
2.48165
1.87796
2.48165
1.57551
0.763768
1.57551
1.01858
1.57551
0.763768
0.0705324
1.01858
0.035687
1.01858
0.0705324
1.01858
1.87796
1.23406
1.87796
1.01858
0.035687
1.23406
9.88291e-15
1.23406
0.035687
1.01858
1.87796
1.23406
1.87796
1.01858
0.0705324
1.01858
0.035687
1.01858
0.0705324
0.763768
1.57551
1.01858
1.57551
0.763768
1.57551
2.48165
1.87796
2.48165
1.57551
1.01858
1.87796
1.23406
1.87796
1.01858
1.57551
2.48165
1.87796
2.48165
1.57551
0.763768
1.57551
1.01858
1.57551
0.763768
0.375704
0.763768
0.0705324
0.763768
0.375704
0.763768
1.57551
1.01858
1.57551
0.763768
0.0705324
1.01858
0.035687
1.01858
0.0705324
0.763768
1.57551
1.01858
1.57551
0.763768
0.375704
0.763768
0.0705324
0.763768
0.375704

SCALARS mass double 1
LOOKUP_TABLE default
1
1
1
1
1
1
1
1
1
1
1
1
1
1
1
1
1
1
1
1
1
1
1
1
1
1
1
1
1
1
1
1
1
1
1
1
1
1
1
1
1
1
1
1
1
1
1
1
1
1
1
1
1
1
1
1
1
1
1
1
1
1
1
1
1
1
1
1
1
1
1
1
1
1
1
1
1
1
1
1
1
1
1
1
1
1
1
1
1
1
1
1
1
1
1
1
1
1
1
1
1
1
1
1
1
1
1
1
1
1
1
1
1
1
1
1
1
1
1
1
1
1
1
1
1
