# vtk DataFile Version 3.0
Molecular dynamics particles
ASCII
DATASET POLYDATA
POINTS 125 double
0.411584 0.411584 0.411584
0.431889 0.431889 1.43172
0.426408 0.426408 3
0.431889 0.431889 4.56828
0.411584 0.411584 5.58842
0.431889 1.43172 0.431889
0.450098 1.44093 1.44093
0.444675 1.44194 3
0.450098 1.44093 4.55907
0.431889 1.43172 5.56811
0.426408 3 0.426408
0.444675 3 1.44194
0.439642 3 3
0.444675 3 4.55806
0.426408 3 5.57359
0.431889 4.56828 0.431889
0.450098 4.55907 1.44093
0.444675 4.55806 3
0.450098 4.55907 4.55907
0.431889 4.56828 5.56811
0.411584 5.58842 0.411584
0.431889 5.56811 1.43172
0.426408 5.57359 3
0.431889 5.56811 4.56828
0.411584 5.58842 5.58842
1.43172 0.431889 0.431889
1.44093 0.450098 1.44093
1.44194 0.444675 3
1.44093 0.450098 4.55907
1.43172 0.431889 5.56811
1.44093 1.44093 0.450098
1.45947 1.45947 1.45947
1.45913 1.45913 3
1.45947 1.45947 4.54053
1.44093 1.44093 5.5499
1.44194 3 0.444675
1.45913 3 1.45913
1.45909 3 3
1.45913 3 4.54087
1.44194 3 5.55532
1.44093 4.55907 0.450098
1.45947 4.54053 1.45947
1.45913 4.54087 3
1.45947 4.54053 4.54053
1.44093 4.55907 5.5499
1.43172 5.56811 0.431889
1.44093 5.5499 1.44093
1.44194 5.55532 3
1.44093 5.5499 4.55907
1.43172 5.56811 5.56811
3 0.426408 0.426408
3 0.444675 1.44194
3 0.439642 3
3 0.444675 4.55806
3 0.426408 5.57359
3 1.44194 0.444675
3 1.45913 1.45913
3 1.45909 3
3 1.45913 4.54087
3 1.44194 5.55532
3 3 0.439642
3 3 1.45909
3 3 3
3 3 4.54091
3 3 5.56036
3 4.55806 0.444675
3 4.54087 1.45913
3 4.54091 3
3 4.54087 4.54087
3 4.55806 5.55532
3 5.57359 0.426408
3 5.55532 1.44194
3 5.56036 3
3 5.55532 4.55806
3 5.57359 5.57359
4.56828 0.431889 0.431889
4.55907 0.450098 1.44093
4.55806 0.444675 3
4.55907 0.450098 4.55907
4.56828 0.431889 5.56811
4.55907 1.44093 0.450098
4.54053 1.45947 1.45947
4.54087 1.45913 3
4.54053 1.45947 4.54053
4.55907 1.44093 5.5499
4.55806 3 0.444675
4.54087 3 1.45913
4.54091 3 3
4.54087 3 4.54087
4.55806 3 5.55532
4.55907 4.55907 0.450098
4.54053 4.54053 1.45947
4.54087 4.54087 3
4.54053 4.54053 4.54053
4.55907 4.55907 5.5499
4.56828 5.56811 0.431889
4.55907 5.5499 1.44093
4.55806 5.55532 3
4.55907 5.5499 4.55907
4.56828 5.56811 5.56811
5.58842 0.411584 0.411584
5.56811 0.431889 1.43172
5.57359 0.426408 3
5.56811 0.431889 4.56828
5.58842 0.411584 5.58842
5.56811 1.43172 0.431889
5.5499 1.44093 1.44093
5.55532 1.44194 3
5.5499 1.44093 4.55907
5.56811 1.43172 5.56811
5.57359 3 0.426408
5.55532 3 1.44194
5.56036 3 3
5.55532 3 4.55806
5.57359 3 5.57359
5.56811 4.56828 0.431889
5.5499 4.55907 1.44093
5.55532 4.55806 3
5.5499 4.55907 4.55907
5.56811 4.56828 5.56811
5.58842 5.58842 0.411584
5.56811 5.56811 1.43172
5.57359 5.57359 3
5.56811 5.56811 4.56828
5.58842 5.58842 5.58842

VERTICES 125 250
1 0
1 1
1 2
1 3
1 4
1 5
1 6
1 7
1 8
1 9
1 10
1 11
1 12
1 13
1 14
1 15
1 16
1 17
1 18
1 19
1 20
1 21
1 22
1 23
1 24
1 25
1 26
1 27
1 28
1 29
1 30
1 31
1 32
1 33
1 34
1 35
1 36
1 37
1 38
1 39
1 40
1 41
1 42
1 43
1 44
1 45
1 46
1 47
1 48
1 49
1 50
1 51
1 52
1 53
1 54
1 55
1 56
1 57
1 58
1 59
1 60
1 61
1 62
1 63
1 64
1 65
1 66
1 67
1 68
1 69
1 70
1 71
1 72
1 73
1 74
1 75
1 76
1 77
1 78
1 79
1 80
1 81
1 82
1 83
1 84
1 85
1 86
1 87
1 88
1 89
1 90
1 91
1 92
1 93
1 94
1 95
1 96
1 97
1 98
1 99
1 100
1 101
1 102
1 103
1 104
1 105
1 106
1 107
1 108
1 109
1 110
1 111
1 112
1 113
1 114
1 115
1 116
1 117
1 118
1 119
1 120
1 121
1 122
1 123
1 124

POINT_DATA 125
SCALARS speed double 1
LOOKUP_TABLE default
1.56418
0.958676
0.945313
0.958676
1.56418
0.958676
0.730063
0.566774
0.730063
0.958676
0.945313
0.566774
0.430666
0.566774
0.945313
0.958676
0.730063
0.566774
0.730063
0.958676
1.56418
0.958676
0.945313
0.958676
1.56418
0.958676
0.730063
0.566774
0.730063
0.958676
0.730063
1.46629
1.08437
1.46629
0.730063
0.566774
1.08437
0.698188
1.08437
0.566774
0.730063
1.46629
1.08437
1.46629
0.730063
0.958676
0.730063
0.566774
0.730063
0.958676
0.945313
0.566774
0.430666
0.566774
0.945313
0.566774
1.08437
0.698188
1.08437
0.566774
0.430666
0.698188
1.90471e-14
0.698188
0.430666
0.566774
1.08437
0.698188
1.08437
0.566774
0.945313
0.566774
0.430666
0.566774
0.945313
0.958676
0.730063
0.566774
0.730063
0.958676
0.730063
1.46629
1.08437
1.46629
0.730063
0.566774
1.08437
0.698188
1.08437
0.566774
0.730063
1.46629
1.08437
1.46629
0.730063
0.958676
0.730063
0.566774
0.730063
0.958676
1.56418
0.958676
0.945313
0.958676
1.56418
0.958676
0.730063
0.566774
0.730063
0.958676
0.945313
0.566774
0.430666
0.566774
0.945313
0.958676
0.730063
0.566774
0.730063
0.958676
1.56418
0.958676
0.945313
0.958676
1.56418

SCALARS mass double 1
LOOKUP_TABLE default
1
1
1
1
1
1
1
1
1
1
1
1
1
1
1
1
1
1
1
1
1
1
1
1
1
1
1
1
1
1
1
1
1
1
1
1
1
1
1
1
1
1
1
1
1
1
1
1
1
1
1
1
1
1
1
1
1
1
1
1
1
1
1
1
1
1
1
1
1
1
1
1
1
1
1
1
1
1
1
1
1
1
1
1
1
1
1
1
1
1
1
1
1
1
1
1
1
1
1
1
1
1
1
1
1
1
1
1
1
1
1
1
1
1
1
1
1
1
1
1
1
1
1
1
1
