# vtk DataFile Version 3.0
Molecular dynamics particles
ASCII
DATASET POLYDATA
POINTS 125 double
0.0253686 0.0253686 0.0253686
0.0274394 0.0274394 1.50014
0.0275093 0.0275093 3
0.0274394 0.0274394 4.49986
0.0253686 0.0253686 5.97463
0.0274394 1.50014 0.0274394
0.0298699 1.50024 1.50024
0.0299637 1.50026 3
0.0298699 1.50024 4.49976
0.0274394 1.50014 5.97256
0.0275093 3 0.0275093
0.0299637 3 1.50026
0.030062 3 3
0.0299637 3 4.49974
0.0275093 3 5.97249
0.0274394 4.49986 0.0274394
0.0298699 4.49976 1.50024
0.0299637 4.49974 3
0.0298699 4.49976 4.49976
0.0274394 4.49986 5.97256
0.0253686 5.97463 0.0253686
0.0274394 5.97256 1.50014
0.0275093 5.97249 3
0.0274394 5.97256 4.49986
0.0253686 5.97463 5.97463
1.50014 0.0274394 0.0274394
1.50024 0.0298699 1.50024
1.50026 0.0299637 3
1.50024 0.0298699 4.49976
1.50014 0.0274394 5.97256
1.50024 1.50024 0.0298699
1.50039 1.50039 1.50039
1.50042 1.50042 3
1.50039 1.50039 4.49961
1.50024 1.50024 5.97013
1.50026 3 0.0299637
1.50042 3 1.50042
1.50045 3 3
1.50042 3 4.49958
1.50026 3 5.97004
1.50024 4.49976 0.0298699
1.50039 4.49961 1.50039
1.50042 4.49958 3
1.50039 4.49961 4.49961
1.50024 4.49976 5.97013
1.50014 5.97256 0.0274394
1.50024 5.97013 1.50024
1.50026 5.97004 3
1.50024 5.97013 4.49976
1.50014 5.97256 5.97256
3 0.0275093 0.0275093
3 0.0299637 1.50026
3 0.030062 3
3 0.0299637 4.49974
3 0.0275093 5.97249
3 1.50026 0.0299637
3 1.50042 1.50042
3 1.50045 3
3 1.50042 4.49958
3 1.50026 5.97004
3 3 0.030062
3 3 1.50045
3 3 3
3 3 4.49955
3 3 5.96994
3 4.49974 0.0299637
3 4.49958 1.50042
3 4.49955 3
3 4.49958 4.49958
3 4.49974 5.97004
3 5.97249 0.0275093
3 5.97004 1.50026
3 5.96994 3
3 5.97004 4.49974
3 5.97249 5.97249
4.49986 0.0274394 0.0274394
4.49976 0.0298699 1.50024
4.49974 0.0299637 3
4.49976 0.0298699 4.49976
4.49986 0.0274394 5.97256
4.49976 1.50024 0.0298699
4.49961 1.50039 1.50039
4.49958 1.50042 3
4.49961 1.50039 4.49961
4.49976 1.50024 5.97013
4.49974 3 0.0299637
4.49958 3 1.50042
4.49955 3 3
4.49958 3 4.49958
4.49974 3 5.97004
4.49976 4.49976 0.0298699
4.49961 4.49961 1.50039
4.49958 4.49958 3
4.49961 4.49961 4.49961
4.49976 4.49976 5.97013
4.49986 5.97256 0.0274394
4.49976 5.97013 1.50024
4.49974 5.97004 3
4.49976 5.97013 4.49976
4.49986 5.97256 5.97256
5.97463 0.0253686 0.0253686
5.97256 0.0274394 1.50014
5.97249 0.0275093 3
5.97256 0.0274394 4.49986
5.97463 0.0253686 5.97463
5.97256 1.50014 0.0274394
5.97013 1.50024 1.50024
5.97004 1.50026 3
5.97013 1.50024 4.49976
5.97256 1.50014 5.97256
5.97249 3 0.0275093
5.97004 3 1.50026
5.96994 3 3
5.97004 3 4.49974
5.97249 3 5.97249
5.97256 4.49986 0.0274394
5.97013 4.49976 1.50024
5.97004 4.49974 3
5.97013 4.49976 4.49976
5.97256 4.49986 5.97256
5.97463 5.97463 0.0253686
5.97256 5.97256 1.50014
5.97249 5.97249 3
5.97256 5.97256 4.49986
5.97463 5.97463 5.97463

VERTICES 125 250
1 0
1 1
1 2
1 3
1 4
1 5
1 6
1 7
1 8
1 9
1 10
1 11
1 12
1 13
1 14
1 15
1 16
1 17
1 18
1 19
1 20
1 21
1 22
1 23
1 24
1 25
1 26
1 27
1 28
1 29
1 30
1 31
1 32
1 33
1 34
1 35
1 36
1 37
1 38
1 39
1 40
1 41
1 42
1 43
1 44
1 45
1 46
1 47
1 48
1 49
1 50
1 51
1 52
1 53
1 54
1 55
1 56
1 57
1 58
1 59
1 60
1 61
1 62
1 63
1 64
1 65
1 66
1 67
1 68
1 69
1 70
1 71
1 72
1 73
1 74
1 75
1 76
1 77
1 78
1 79
1 80
1 81
1 82
1 83
1 84
1 85
1 86
1 87
1 88
1 89
1 90
1 91
1 92
1 93
1 94
1 95
1 96
1 97
1 98
1 99
1 100
1 101
1 102
1 103
1 104
1 105
1 106
1 107
1 108
1 109
1 110
1 111
1 112
1 113
1 114
1 115
1 116
1 117
1 118
1 119
1 120
1 121
1 122
1 123
1 124

POINT_DATA 125
SCALARS speed double 1
LOOKUP_TABLE default
0.47039
0.415557
0.416361
0.415557
0.47039
0.415557
0.319941
0.320734
0.319941
0.415557
0.416361
0.320734
0.321573
0.320734
0.416361
0.415557
0.319941
0.320734
0.319941
0.415557
0.47039
0.415557
0.416361
0.415557
0.47039
0.415557
0.319941
0.320734
0.319941
0.415557
0.319941
0.00128739
0.000673873
0.00128739
0.319941
0.320734
0.000673873
0.000190174
0.000673873
0.320734
0.319941
0.00128739
0.000673873
0.00128739
0.319941
0.415557
0.319941
0.320734
0.319941
0.415557
0.416361
0.320734
0.321573
0.320734
0.416361
0.320734
0.000673873
0.000190174
0.000673873
0.320734
0.321573
0.000190174
1.65865e-15
0.000190174
0.321573
0.320734
0.000673873
0.000190174
0.000673873
0.320734
0.416361
0.320734
0.321573
0.320734
0.416361
0.415557
0.319941
0.320734
0.319941
0.415557
0.319941
0.00128739
0.000673873
0.00128739
0.319941
0.320734
0.000673873
0.000190174
0.000673873
0.320734
0.319941
0.00128739
0.000673873
0.00128739
0.319941
0.415557
0.319941
0.320734
0.319941
0.415557
0.47039
0.415557
0.416361
0.415557
0.47039
0.415557
0.319941
0.320734
0.319941
0.415557
0.416361
0.320734
0.321573
0.320734
0.416361
0.415557
0.319941
0.320734
0.319941
0.415557
0.47039
0.415557
0.416361
0.415557
0.47039

SCALARS mass double 1
LOOKUP_TABLE default
1
1
1
1
1
1
1
1
1
1
1
1
1
1
1
1
1
1
1
1
1
1
1
1
1
1
1
1
1
1
1
1
1
1
1
1
1
1
1
1
1
1
1
1
1
1
1
1
1
1
1
1
1
1
1
1
1
1
1
1
1
1
1
1
1
1
1
1
1
1
1
1
1
1
1
1
1
1
1
1
1
1
1
1
1
1
1
1
1
1
1
1
1
1
1
1
1
1
1
1
1
1
1
1
1
1
1
1
1
1
1
1
1
1
1
1
1
1
1
1
1
1
1
1
1
