# vtk DataFile Version 3.0
Molecular dynamics particles
ASCII
DATASET POLYDATA
POINTS 125 double
0.179719 0.179719 0.179719
0.194749 0.194749 1.48503
0.194343 0.194343 3
0.194749 0.194749 4.51497
0.179719 0.179719 5.82028
0.194749 1.48503 0.194749
0.212205 1.48394 1.48394
0.211813 1.48416 3
0.212205 1.48394 4.51606
0.194749 1.48503 5.80525
0.194343 3 0.194343
0.211813 3 1.48416
0.211454 3 3
0.211813 3 4.51584
0.194343 3 5.80566
0.194749 4.51497 0.194749
0.212205 4.51606 1.48394
0.211813 4.51584 3
0.212205 4.51606 4.51606
0.194749 4.51497 5.80525
0.179719 5.82028 0.179719
0.194749 5.80525 1.48503
0.194343 5.80566 3
0.194749 5.80525 4.51497
0.179719 5.82028 5.82028
1.48503 0.194749 0.194749
1.48394 0.212205 1.48394
1.48416 0.211813 3
1.48394 0.212205 4.51606
1.48503 0.194749 5.80525
1.48394 1.48394 0.212205
1.48282 1.48282 1.48282
1.4831 1.4831 3
1.48282 1.48282 4.51718
1.48394 1.48394 5.78779
1.48416 3 0.211813
1.4831 3 1.4831
1.48338 3 3
1.4831 3 4.5169
1.48416 3 5.78819
1.48394 4.51606 0.212205
1.48282 4.51718 1.48282
1.4831 4.5169 3
1.48282 4.51718 4.51718
1.48394 4.51606 5.78779
1.48503 5.80525 0.194749
1.48394 5.78779 1.48394
1.48416 5.78819 3
1.48394 5.78779 4.51606
1.48503 5.80525 5.80525
3 0.194343 0.194343
3 0.211813 1.48416
3 0.211454 3
3 0.211813 4.51584
3 0.194343 5.80566
3 1.48416 0.211813
3 1.4831 1.4831
3 1.48338 3
3 1.4831 4.5169
3 1.48416 5.78819
3 3 0.211454
3 3 1.48338
3 3 3
3 3 4.51662
3 3 5.78855
3 4.51584 0.211813
3 4.5169 1.4831
3 4.51662 3
3 4.5169 4.5169
3 4.51584 5.78819
3 5.80566 0.194343
3 5.78819 1.48416
3 5.78855 3
3 5.78819 4.51584
3 5.80566 5.80566
4.51497 0.194749 0.194749
4.51606 0.212205 1.48394
4.51584 0.211813 3
4.51606 0.212205 4.51606
4.51497 0.194749 5.80525
4.51606 1.48394 0.212205
4.51718 1.48282 1.48282
4.5169 1.4831 3
4.51718 1.48282 4.51718
4.51606 1.48394 5.78779
4.51584 3 0.211813
4.5169 3 1.4831
4.51662 3 3
4.5169 3 4.5169
4.51584 3 5.78819
4.51606 4.51606 0.212205
4.51718 4.51718 1.48282
4.5169 4.5169 3
4.51718 4.51718 4.51718
4.51606 4.51606 5.78779
4.51497 5.80525 0.194749
4.51606 5.78779 1.48394
4.51584 5.78819 3
4.51606 5.78779 4.51606
4.51497 5.80525 5.80525
5.82028 0.179719 0.179719
5.80525 0.194749 1.48503
5.80566 0.194343 3
5.80525 0.194749 4.51497
5.82028 0.179719 5.82028
5.80525 1.48503 0.194749
5.78779 1.48394 1.48394
5.78819 1.48416 3
5.78779 1.48394 4.51606
5.80525 1.48503 5.80525
5.80566 3 0.194343
5.78819 3 1.48416
5.78855 3 3
5.78819 3 4.51584
5.80566 3 5.80566
5.80525 4.51497 0.194749
5.78779 4.51606 1.48394
5.78819 4.51584 3
5.78779 4.51606 4.51606
5.80525 4.51497 5.80525
5.82028 5.82028 0.179719
5.80525 5.80525 1.48503
5.80566 5.80566 3
5.80525 5.80525 4.51497
5.82028 5.82028 5.82028

VERTICES 125 250
1 0
1 1
1 2
1 3
1 4
1 5
1 6
1 7
1 8
1 9
1 10
1 11
1 12
1 13
1 14
1 15
1 16
1 17
1 18
1 19
1 20
1 21
1 22
1 23
1 24
1 25
1 26
1 27
1 28
1 29
1 30
1 31
1 32
1 33
1 34
1 35
1 36
1 37
1 38
1 39
1 40
1 41
1 42
1 43
1 44
1 45
1 46
1 47
1 48
1 49
1 50
1 51
1 52
1 53
1 54
1 55
1 56
1 57
1 58
1 59
1 60
1 61
1 62
1 63
1 64
1 65
1 66
1 67
1 68
1 69
1 70
1 71
1 72
1 73
1 74
1 75
1 76
1 77
1 78
1 79
1 80
1 81
1 82
1 83
1 84
1 85
1 86
1 87
1 88
1 89
1 90
1 91
1 92
1 93
1 94
1 95
1 96
1 97
1 98
1 99
1 100
1 101
1 102
1 103
1 104
1 105
1 106
1 107
1 108
1 109
1 110
1 111
1 112
1 113
1 114
1 115
1 116
1 117
1 118
1 119
1 120
1 121
1 122
1 123
1 124

POINT_DATA 125
SCALARS speed double 1
LOOKUP_TABLE default
1.47802
1.3191
1.29797
1.3191
1.47802
1.3191
1.03793
1.01385
1.03793
1.3191
1.29797
1.01385
0.990523
1.01385
1.29797
1.3191
1.03793
1.01385
1.03793
1.3191
1.47802
1.3191
1.29797
1.3191
1.47802
1.3191
1.03793
1.01385
1.03793
1.3191
1.03793
0.326315
0.261741
0.326315
1.03793
1.01385
0.261741
0.181757
0.261741
1.01385
1.03793
0.326315
0.261741
0.326315
1.03793
1.3191
1.03793
1.01385
1.03793
1.3191
1.29797
1.01385
0.990523
1.01385
1.29797
1.01385
0.261741
0.181757
0.261741
1.01385
0.990523
0.181757
1.43022e-14
0.181757
0.990523
1.01385
0.261741
0.181757
0.261741
1.01385
1.29797
1.01385
0.990523
1.01385
1.29797
1.3191
1.03793
1.01385
1.03793
1.3191
1.03793
0.326315
0.261741
0.326315
1.03793
1.01385
0.261741
0.181757
0.261741
1.01385
1.03793
0.326315
0.261741
0.326315
1.03793
1.3191
1.03793
1.01385
1.03793
1.3191
1.47802
1.3191
1.29797
1.3191
1.47802
1.3191
1.03793
1.01385
1.03793
1.3191
1.29797
1.01385
0.990523
1.01385
1.29797
1.3191
1.03793
1.01385
1.03793
1.3191
1.47802
1.3191
1.29797
1.3191
1.47802

SCALARS mass double 1
LOOKUP_TABLE default
1
1
1
1
1
1
1
1
1
1
1
1
1
1
1
1
1
1
1
1
1
1
1
1
1
1
1
1
1
1
1
1
1
1
1
1
1
1
1
1
1
1
1
1
1
1
1
1
1
1
1
1
1
1
1
1
1
1
1
1
1
1
1
1
1
1
1
1
1
1
1
1
1
1
1
1
1
1
1
1
1
1
1
1
1
1
1
1
1
1
1
1
1
1
1
1
1
1
1
1
1
1
1
1
1
1
1
1
1
1
1
1
1
1
1
1
1
1
1
1
1
1
1
1
1
