# vtk DataFile Version 3.0
Molecular dynamics particles
ASCII
DATASET POLYDATA
POINTS 125 double
0.257659 0.257659 0.257659
0.279152 0.279152 1.46761
0.277623 0.277623 3
0.279152 0.279152 4.53239
0.257659 0.257659 5.74234
0.279152 1.46761 0.279152
0.303726 1.46506 1.46506
0.302052 1.4657 3
0.303726 1.46506 4.53494
0.279152 1.46761 5.72085
0.277623 3 0.277623
0.302052 3 1.4657
0.300464 3 3
0.302052 3 4.5343
0.277623 3 5.72238
0.279152 4.53239 0.279152
0.303726 4.53494 1.46506
0.302052 4.5343 3
0.303726 4.53494 4.53494
0.279152 4.53239 5.72085
0.257659 5.74234 0.257659
0.279152 5.72085 1.46761
0.277623 5.72238 3
0.279152 5.72085 4.53239
0.257659 5.74234 5.74234
1.46761 0.279152 0.279152
1.46506 0.303726 1.46506
1.4657 0.302052 3
1.46506 0.303726 4.53494
1.46761 0.279152 5.72085
1.46506 1.46506 0.303726
1.4626 1.4626 1.4626
1.46339 1.46339 3
1.4626 1.4626 4.5374
1.46506 1.46506 5.69627
1.4657 3 0.302052
1.46339 3 1.46339
1.46417 3 3
1.46339 3 4.53661
1.4657 3 5.69795
1.46506 4.53494 0.303726
1.4626 4.5374 1.4626
1.46339 4.53661 3
1.4626 4.5374 4.5374
1.46506 4.53494 5.69627
1.46761 5.72085 0.279152
1.46506 5.69627 1.46506
1.4657 5.69795 3
1.46506 5.69627 4.53494
1.46761 5.72085 5.72085
3 0.277623 0.277623
3 0.302052 1.4657
3 0.300464 3
3 0.302052 4.5343
3 0.277623 5.72238
3 1.4657 0.302052
3 1.46339 1.46339
3 1.46417 3
3 1.46339 4.53661
3 1.4657 5.69795
3 3 0.300464
3 3 1.46417
3 3 3
3 3 4.53583
3 3 5.69954
3 4.5343 0.302052
3 4.53661 1.46339
3 4.53583 3
3 4.53661 4.53661
3 4.5343 5.69795
3 5.72238 0.277623
3 5.69795 1.4657
3 5.69954 3
3 5.69795 4.5343
3 5.72238 5.72238
4.53239 0.279152 0.279152
4.53494 0.303726 1.46506
4.5343 0.302052 3
4.53494 0.303726 4.53494
4.53239 0.279152 5.72085
4.53494 1.46506 0.303726
4.5374 1.4626 1.4626
4.53661 1.46339 3
4.5374 1.4626 4.5374
4.53494 1.46506 5.69627
4.5343 3 0.302052
4.53661 3 1.46339
4.53583 3 3
4.53661 3 4.53661
4.5343 3 5.69795
4.53494 4.53494 0.303726
4.5374 4.5374 1.4626
4.53661 4.53661 3
4.5374 4.5374 4.5374
4.53494 4.53494 5.69627
4.53239 5.72085 0.279152
4.53494 5.69627 1.46506
4.5343 5.69795 3
4.53494 5.69627 4.53494
4.53239 5.72085 5.72085
5.74234 0.257659 0.257659
5.72085 0.279152 1.46761
5.72238 0.277623 3
5.72085 0.279152 4.53239
5.74234 0.257659 5.74234
5.72085 1.46761 0.279152
5.69627 1.46506 1.46506
5.69795 1.4657 3
5.69627 1.46506 4.53494
5.72085 1.46761 5.72085
5.72238 3 0.277623
5.69795 3 1.4657
5.69954 3 3
5.69795 3 4.5343
5.72238 3 5.72238
5.72085 4.53239 0.279152
5.69627 4.53494 1.46506
5.69795 4.5343 3
5.69627 4.53494 4.53494
5.72085 4.53239 5.72085
5.74234 5.74234 0.257659
5.72085 5.72085 1.46761
5.72238 5.72238 3
5.72085 5.72085 4.53239
5.74234 5.74234 5.74234

VERTICES 125 250
1 0
1 1
1 2
1 3
1 4
1 5
1 6
1 7
1 8
1 9
1 10
1 11
1 12
1 13
1 14
1 15
1 16
1 17
1 18
1 19
1 20
1 21
1 22
1 23
1 24
1 25
1 26
1 27
1 28
1 29
1 30
1 31
1 32
1 33
1 34
1 35
1 36
1 37
1 38
1 39
1 40
1 41
1 42
1 43
1 44
1 45
1 46
1 47
1 48
1 49
1 50
1 51
1 52
1 53
1 54
1 55
1 56
1 57
1 58
1 59
1 60
1 61
1 62
1 63
1 64
1 65
1 66
1 67
1 68
1 69
1 70
1 71
1 72
1 73
1 74
1 75
1 76
1 77
1 78
1 79
1 80
1 81
1 82
1 83
1 84
1 85
1 86
1 87
1 88
1 89
1 90
1 91
1 92
1 93
1 94
1 95
1 96
1 97
1 98
1 99
1 100
1 101
1 102
1 103
1 104
1 105
1 106
1 107
1 108
1 109
1 110
1 111
1 112
1 113
1 114
1 115
1 116
1 117
1 118
1 119
1 120
1 121
1 122
1 123
1 124

POINT_DATA 125
SCALARS speed double 1
LOOKUP_TABLE default
1.90855
1.70334
1.64872
1.70334
1.90855
1.70334
1.34592
1.28526
1.34592
1.70334
1.64872
1.28526
1.22772
1.28526
1.64872
1.70334
1.34592
1.28526
1.34592
1.70334
1.90855
1.70334
1.64872
1.70334
1.90855
1.70334
1.34592
1.28526
1.34592
1.70334
1.34592
0.542404
0.428276
0.542404
1.34592
1.28526
0.428276
0.292842
0.428276
1.28526
1.34592
0.542404
0.428276
0.542404
1.34592
1.70334
1.34592
1.28526
1.34592
1.70334
1.64872
1.28526
1.22772
1.28526
1.64872
1.28526
0.428276
0.292842
0.428276
1.28526
1.22772
0.292842
1.5805e-14
0.292842
1.22772
1.28526
0.428276
0.292842
0.428276
1.28526
1.64872
1.28526
1.22772
1.28526
1.64872
1.70334
1.34592
1.28526
1.34592
1.70334
1.34592
0.542404
0.428276
0.542404
1.34592
1.28526
0.428276
0.292842
0.428276
1.28526
1.34592
0.542404
0.428276
0.542404
1.34592
1.70334
1.34592
1.28526
1.34592
1.70334
1.90855
1.70334
1.64872
1.70334
1.90855
1.70334
1.34592
1.28526
1.34592
1.70334
1.64872
1.28526
1.22772
1.28526
1.64872
1.70334
1.34592
1.28526
1.34592
1.70334
1.90855
1.70334
1.64872
1.70334
1.90855

SCALARS mass double 1
LOOKUP_TABLE default
1
1
1
1
1
1
1
1
1
1
1
1
1
1
1
1
1
1
1
1
1
1
1
1
1
1
1
1
1
1
1
1
1
1
1
1
1
1
1
1
1
1
1
1
1
1
1
1
1
1
1
1
1
1
1
1
1
1
1
1
1
1
1
1
1
1
1
1
1
1
1
1
1
1
1
1
1
1
1
1
1
1
1
1
1
1
1
1
1
1
1
1
1
1
1
1
1
1
1
1
1
1
1
1
1
1
1
1
1
1
1
1
1
1
1
1
1
1
1
1
1
1
1
1
1
