# vtk DataFile Version 3.0
Molecular dynamics particles
ASCII
DATASET POLYDATA
POINTS 125 double
0.0562348 0.0562348 0.0562348
0.0608484 0.0608484 1.49931
0.0609571 0.0609571 3
0.0608484 0.0608484 4.50069
0.0562348 0.0562348 5.94377
0.0608484 1.49931 0.0608484
0.0662549 1.49943 1.49943
0.0664087 1.49947 3
0.0662549 1.49943 4.50057
0.0608484 1.49931 5.93915
0.0609571 3 0.0609571
0.0664087 3 1.49947
0.0665715 3 3
0.0664087 3 4.50053
0.0609571 3 5.93904
0.0608484 4.50069 0.0608484
0.0662549 4.50057 1.49943
0.0664087 4.50053 3
0.0662549 4.50057 4.50057
0.0608484 4.50069 5.93915
0.0562348 5.94377 0.0562348
0.0608484 5.93915 1.49931
0.0609571 5.93904 3
0.0608484 5.93915 4.50069
0.0562348 5.94377 5.94377
1.49931 0.0608484 0.0608484
1.49943 0.0662549 1.49943
1.49947 0.0664087 3
1.49943 0.0662549 4.50057
1.49931 0.0608484 5.93915
1.49943 1.49943 0.0662549
1.49962 1.49962 1.49962
1.49967 1.49967 3
1.49962 1.49962 4.50038
1.49943 1.49943 5.93375
1.49947 3 0.0664087
1.49967 3 1.49967
1.49973 3 3
1.49967 3 4.50033
1.49947 3 5.93359
1.49943 4.50057 0.0662549
1.49962 4.50038 1.49962
1.49967 4.50033 3
1.49962 4.50038 4.50038
1.49943 4.50057 5.93375
1.49931 5.93915 0.0608484
1.49943 5.93375 1.49943
1.49947 5.93359 3
1.49943 5.93375 4.50057
1.49931 5.93915 5.93915
3 0.0609571 0.0609571
3 0.0664087 1.49947
3 0.0665715 3
3 0.0664087 4.50053
3 0.0609571 5.93904
3 1.49947 0.0664087
3 1.49967 1.49967
3 1.49973 3
3 1.49967 4.50033
3 1.49947 5.93359
3 3 0.0665715
3 3 1.49973
3 3 3
3 3 4.50027
3 3 5.93343
3 4.50053 0.0664087
3 4.50033 1.49967
3 4.50027 3
3 4.50033 4.50033
3 4.50053 5.93359
3 5.93904 0.0609571
3 5.93359 1.49947
3 5.93343 3
3 5.93359 4.50053
3 5.93904 5.93904
4.50069 0.0608484 0.0608484
4.50057 0.0662549 1.49943
4.50053 0.0664087 3
4.50057 0.0662549 4.50057
4.50069 0.0608484 5.93915
4.50057 1.49943 0.0662549
4.50038 1.49962 1.49962
4.50033 1.49967 3
4.50038 1.49962 4.50038
4.50057 1.49943 5.93375
4.50053 3 0.0664087
4.50033 3 1.49967
4.50027 3 3
4.50033 3 4.50033
4.50053 3 5.93359
4.50057 4.50057 0.0662549
4.50038 4.50038 1.49962
4.50033 4.50033 3
4.50038 4.50038 4.50038
4.50057 4.50057 5.93375
4.50069 5.93915 0.0608484
4.50057 5.93375 1.49943
4.50053 5.93359 3
4.50057 5.93375 4.50057
4.50069 5.93915 5.93915
5.94377 0.0562348 0.0562348
5.93915 0.0608484 1.49931
5.93904 0.0609571 3
5.93915 0.0608484 4.50069
5.94377 0.0562348 5.94377
5.93915 1.49931 0.0608484
5.93375 1.49943 1.49943
5.93359 1.49947 3
5.93375 1.49943 4.50057
5.93915 1.49931 5.93915
5.93904 3 0.0609571
5.93359 3 1.49947
5.93343 3 3
5.93359 3 4.50053
5.93904 3 5.93904
5.93915 4.50069 0.0608484
5.93375 4.50057 1.49943
5.93359 4.50053 3
5.93375 4.50057 4.50057
5.93915 4.50069 5.93915
5.94377 5.94377 0.0562348
5.93915 5.93915 1.49931
5.93904 5.93904 3
5.93915 5.93915 4.50069
5.94377 5.94377 5.94377

VERTICES 125 250
1 0
1 1
1 2
1 3
1 4
1 5
1 6
1 7
1 8
1 9
1 10
1 11
1 12
1 13
1 14
1 15
1 16
1 17
1 18
1 19
1 20
1 21
1 22
1 23
1 24
1 25
1 26
1 27
1 28
1 29
1 30
1 31
1 32
1 33
1 34
1 35
1 36
1 37
1 38
1 39
1 40
1 41
1 42
1 43
1 44
1 45
1 46
1 47
1 48
1 49
1 50
1 51
1 52
1 53
1 54
1 55
1 56
1 57
1 58
1 59
1 60
1 61
1 62
1 63
1 64
1 65
1 66
1 67
1 68
1 69
1 70
1 71
1 72
1 73
1 74
1 75
1 76
1 77
1 78
1 79
1 80
1 81
1 82
1 83
1 84
1 85
1 86
1 87
1 88
1 89
1 90
1 91
1 92
1 93
1 94
1 95
1 96
1 97
1 98
1 99
1 100
1 101
1 102
1 103
1 104
1 105
1 106
1 107
1 108
1 109
1 110
1 111
1 112
1 113
1 114
1 115
1 116
1 117
1 118
1 119
1 120
1 121
1 122
1 123
1 124

POINT_DATA 125
SCALARS speed double 1
LOOKUP_TABLE default
0.722895
0.63939
0.639332
0.63939
0.722895
0.63939
0.493062
0.493051
0.493062
0.63939
0.639332
0.493051
0.493117
0.493051
0.639332
0.63939
0.493062
0.493051
0.493062
0.63939
0.722895
0.63939
0.639332
0.63939
0.722895
0.63939
0.493062
0.493051
0.493062
0.63939
0.493062
0.03414
0.0273788
0.03414
0.493062
0.493051
0.0273788
0.0189827
0.0273788
0.493051
0.493062
0.03414
0.0273788
0.03414
0.493062
0.63939
0.493062
0.493051
0.493062
0.63939
0.639332
0.493051
0.493117
0.493051
0.639332
0.493051
0.0273788
0.0189827
0.0273788
0.493051
0.493117
0.0189827
5.34519e-15
0.0189827
0.493117
0.493051
0.0273788
0.0189827
0.0273788
0.493051
0.639332
0.493051
0.493117
0.493051
0.639332
0.63939
0.493062
0.493051
0.493062
0.63939
0.493062
0.03414
0.0273788
0.03414
0.493062
0.493051
0.0273788
0.0189827
0.0273788
0.493051
0.493062
0.03414
0.0273788
0.03414
0.493062
0.63939
0.493062
0.493051
0.493062
0.63939
0.722895
0.63939
0.639332
0.63939
0.722895
0.63939
0.493062
0.493051
0.493062
0.63939
0.639332
0.493051
0.493117
0.493051
0.639332
0.63939
0.493062
0.493051
0.493062
0.63939
0.722895
0.63939
0.639332
0.63939
0.722895

SCALARS mass double 1
LOOKUP_TABLE default
1
1
1
1
1
1
1
1
1
1
1
1
1
1
1
1
1
1
1
1
1
1
1
1
1
1
1
1
1
1
1
1
1
1
1
1
1
1
1
1
1
1
1
1
1
1
1
1
1
1
1
1
1
1
1
1
1
1
1
1
1
1
1
1
1
1
1
1
1
1
1
1
1
1
1
1
1
1
1
1
1
1
1
1
1
1
1
1
1
1
1
1
1
1
1
1
1
1
1
1
1
1
1
1
1
1
1
1
1
1
1
1
1
1
1
1
1
1
1
1
1
1
1
1
1
