# vtk DataFile Version 3.0
Molecular dynamics particles
ASCII
DATASET POLYDATA
POINTS 125 double
0.126437 0.126437 0.126437
0.136933 0.136933 1.49332
0.136902 0.136902 3
0.136933 0.136933 4.50668
0.126437 0.126437 5.87356
0.136933 1.49332 0.136933
0.149181 1.493 1.493
0.149204 1.4931 3
0.149181 1.493 4.507
0.136933 1.49332 5.86307
0.136902 3 0.136902
0.149204 3 1.4931
0.149246 3 3
0.149204 3 4.5069
0.136902 3 5.8631
0.136933 4.50668 0.136933
0.149181 4.507 1.493
0.149204 4.5069 3
0.149181 4.507 4.507
0.136933 4.50668 5.86307
0.126437 5.87356 0.126437
0.136933 5.86307 1.49332
0.136902 5.8631 3
0.136933 5.86307 4.50668
0.126437 5.87356 5.87356
1.49332 0.136933 0.136933
1.493 0.149181 1.493
1.4931 0.149204 3
1.493 0.149181 4.507
1.49332 0.136933 5.86307
1.493 1.493 0.149181
1.49272 1.49272 1.49272
1.49285 1.49285 3
1.49272 1.49272 4.50728
1.493 1.493 5.85082
1.4931 3 0.149204
1.49285 3 1.49285
1.49299 3 3
1.49285 3 4.50715
1.4931 3 5.8508
1.493 4.507 0.149181
1.49272 4.50728 1.49272
1.49285 4.50715 3
1.49272 4.50728 4.50728
1.493 4.507 5.85082
1.49332 5.86307 0.136933
1.493 5.85082 1.493
1.4931 5.8508 3
1.493 5.85082 4.507
1.49332 5.86307 5.86307
3 0.136902 0.136902
3 0.149204 1.4931
3 0.149246 3
3 0.149204 4.5069
3 0.136902 5.8631
3 1.4931 0.149204
3 1.49285 1.49285
3 1.49299 3
3 1.49285 4.50715
3 1.4931 5.8508
3 3 0.149246
3 3 1.49299
3 3 3
3 3 4.50701
3 3 5.85075
3 4.5069 0.149204
3 4.50715 1.49285
3 4.50701 3
3 4.50715 4.50715
3 4.5069 5.8508
3 5.8631 0.136902
3 5.8508 1.4931
3 5.85075 3
3 5.8508 4.5069
3 5.8631 5.8631
4.50668 0.136933 0.136933
4.507 0.149181 1.493
4.5069 0.149204 3
4.507 0.149181 4.507
4.50668 0.136933 5.86307
4.507 1.493 0.149181
4.50728 1.49272 1.49272
4.50715 1.49285 3
4.50728 1.49272 4.50728
4.507 1.493 5.85082
4.5069 3 0.149204
4.50715 3 1.49285
4.50701 3 3
4.50715 3 4.50715
4.5069 3 5.8508
4.507 4.507 0.149181
4.50728 4.50728 1.49272
4.50715 4.50715 3
4.50728 4.50728 4.50728
4.507 4.507 5.85082
4.50668 5.86307 0.136933
4.507 5.85082 1.493
4.5069 5.8508 3
4.507 5.85082 4.507
4.50668 5.86307 5.86307
5.87356 0.126437 0.126437
5.86307 0.136933 1.49332
5.8631 0.136902 3
5.86307 0.136933 4.50668
5.87356 0.126437 5.87356
5.86307 1.49332 0.136933
5.85082 1.493 1.493
5.8508 1.4931 3
5.85082 1.493 4.507
5.86307 1.49332 5.86307
5.8631 3 0.136902
5.8508 3 1.4931
5.85075 3 3
5.8508 3 4.5069
5.8631 3 5.8631
5.86307 4.50668 0.136933
5.85082 4.507 1.493
5.8508 4.5069 3
5.85082 4.507 4.507
5.86307 4.50668 5.86307
5.87356 5.87356 0.126437
5.86307 5.86307 1.49332
5.8631 5.8631 3
5.86307 5.86307 4.50668
5.87356 5.87356 5.87356

VERTICES 125 250
1 0
1 1
1 2
1 3
1 4
1 5
1 6
1 7
1 8
1 9
1 10
1 11
1 12
1 13
1 14
1 15
1 16
1 17
1 18
1 19
1 20
1 21
1 22
1 23
1 24
1 25
1 26
1 27
1 28
1 29
1 30
1 31
1 32
1 33
1 34
1 35
1 36
1 37
1 38
1 39
1 40
1 41
1 42
1 43
1 44
1 45
1 46
1 47
1 48
1 49
1 50
1 51
1 52
1 53
1 54
1 55
1 56
1 57
1 58
1 59
1 60
1 61
1 62
1 63
1 64
1 65
1 66
1 67
1 68
1 69
1 70
1 71
1 72
1 73
1 74
1 75
1 76
1 77
1 78
1 79
1 80
1 81
1 82
1 83
1 84
1 85
1 86
1 87
1 88
1 89
1 90
1 91
1 92
1 93
1 94
1 95
1 96
1 97
1 98
1 99
1 100
1 101
1 102
1 103
1 104
1 105
1 106
1 107
1 108
1 109
1 110
1 111
1 112
1 113
1 114
1 115
1 116
1 117
1 118
1 119
1 120
1 121
1 122
1 123
1 124

POINT_DATA 125
SCALARS speed double 1
LOOKUP_TABLE default
1.16911
1.03891
1.03103
1.03891
1.16911
1.03891
0.808918
0.800205
0.808918
1.03891
1.03103
0.800205
0.791744
0.800205
1.03103
1.03891
0.808918
0.800205
0.808918
1.03891
1.16911
1.03891
1.03103
1.03891
1.16911
1.03891
0.808918
0.800205
0.808918
1.03891
0.808918
0.174251
0.140639
0.174251
0.808918
0.800205
0.140639
0.0982555
0.140639
0.800205
0.808918
0.174251
0.140639
0.174251
0.808918
1.03891
0.808918
0.800205
0.808918
1.03891
1.03103
0.800205
0.791744
0.800205
1.03103
0.800205
0.140639
0.0982555
0.140639
0.800205
0.791744
0.0982555
1.17535e-14
0.0982555
0.791744
0.800205
0.140639
0.0982555
0.140639
0.800205
1.03103
0.800205
0.791744
0.800205
1.03103
1.03891
0.808918
0.800205
0.808918
1.03891
0.808918
0.174251
0.140639
0.174251
0.808918
0.800205
0.140639
0.0982555
0.140639
0.800205
0.808918
0.174251
0.140639
0.174251
0.808918
1.03891
0.808918
0.800205
0.808918
1.03891
1.16911
1.03891
1.03103
1.03891
1.16911
1.03891
0.808918
0.800205
0.808918
1.03891
1.03103
0.800205
0.791744
0.800205
1.03103
1.03891
0.808918
0.800205
0.808918
1.03891
1.16911
1.03891
1.03103
1.03891
1.16911

SCALARS mass double 1
LOOKUP_TABLE default
1
1
1
1
1
1
1
1
1
1
1
1
1
1
1
1
1
1
1
1
1
1
1
1
1
1
1
1
1
1
1
1
1
1
1
1
1
1
1
1
1
1
1
1
1
1
1
1
1
1
1
1
1
1
1
1
1
1
1
1
1
1
1
1
1
1
1
1
1
1
1
1
1
1
1
1
1
1
1
1
1
1
1
1
1
1
1
1
1
1
1
1
1
1
1
1
1
1
1
1
1
1
1
1
1
1
1
1
1
1
1
1
1
1
1
1
1
1
1
1
1
1
1
1
1
