# vtk DataFile Version 3.0
Molecular dynamics particles
ASCII
DATASET POLYDATA
POINTS 125 double
0.434474 0.434474 0.434474
0.442933 0.442933 1.47743
0.437518 0.437518 3
0.442933 0.442933 4.52257
0.434474 0.434474 5.56553
0.442933 1.47743 0.442933
0.456474 1.51036 1.51036
0.449279 1.50543 3
0.456474 1.51036 4.48964
0.442933 1.47743 5.55707
0.437518 3 0.437518
0.449279 3 1.50543
0.443212 3 3
0.449279 3 4.49457
0.437518 3 5.56248
0.442933 4.52257 0.442933
0.456474 4.48964 1.51036
0.449279 4.49457 3
0.456474 4.48964 4.48964
0.442933 4.52257 5.55707
0.434474 5.56553 0.434474
0.442933 5.55707 1.47743
0.437518 5.56248 3
0.442933 5.55707 4.52257
0.434474 5.56553 5.56553
1.47743 0.442933 0.442933
1.51036 0.456474 1.51036
1.50543 0.449279 3
1.51036 0.456474 4.48964
1.47743 0.442933 5.55707
1.51036 1.51036 0.456474
1.55237 1.55237 1.55237
1.54509 1.54509 3
1.55237 1.55237 4.44763
1.51036 1.51036 5.54353
1.50543 3 0.449279
1.54509 3 1.54509
1.53888 3 3
1.54509 3 4.45491
1.50543 3 5.55072
1.51036 4.48964 0.456474
1.55237 4.44763 1.55237
1.54509 4.45491 3
1.55237 4.44763 4.44763
1.51036 4.48964 5.54353
1.47743 5.55707 0.442933
1.51036 5.54353 1.51036
1.50543 5.55072 3
1.51036 5.54353 4.48964
1.47743 5.55707 5.55707
3 0.437518 0.437518
3 0.449279 1.50543
3 0.443212 3
3 0.449279 4.49457
3 0.437518 5.56248
3 1.50543 0.449279
3 1.54509 1.54509
3 1.53888 3
3 1.54509 4.45491
3 1.50543 5.55072
3 3 0.443212
3 3 1.53888
3 3 3
3 3 4.46112
3 3 5.55679
3 4.49457 0.449279
3 4.45491 1.54509
3 4.46112 3
3 4.45491 4.45491
3 4.49457 5.55072
3 5.56248 0.437518
3 5.55072 1.50543
3 5.55679 3
3 5.55072 4.49457
3 5.56248 5.56248
4.52257 0.442933 0.442933
4.48964 0.456474 1.51036
4.49457 0.449279 3
4.48964 0.456474 4.48964
4.52257 0.442933 5.55707
4.48964 1.51036 0.456474
4.44763 1.55237 1.55237
4.45491 1.54509 3
4.44763 1.55237 4.44763
4.48964 1.51036 5.54353
4.49457 3 0.449279
4.45491 3 1.54509
4.46112 3 3
4.45491 3 4.45491
4.49457 3 5.55072
4.48964 4.48964 0.456474
4.44763 4.44763 1.55237
4.45491 4.45491 3
4.44763 4.44763 4.44763
4.48964 4.48964 5.54353
4.52257 5.55707 0.442933
4.48964 5.54353 1.51036
4.49457 5.55072 3
4.48964 5.54353 4.48964
4.52257 5.55707 5.55707
5.56553 0.434474 0.434474
5.55707 0.442933 1.47743
5.56248 0.437518 3
5.55707 0.442933 4.52257
5.56553 0.434474 5.56553
5.55707 1.47743 0.442933
5.54353 1.51036 1.51036
5.55072 1.50543 3
5.54353 1.51036 4.48964
5.55707 1.47743 5.55707
5.56248 3 0.437518
5.55072 3 1.50543
5.55679 3 3
5.55072 3 4.49457
5.56248 3 5.56248
5.55707 4.52257 0.442933
5.54353 4.48964 1.51036
5.55072 4.49457 3
5.54353 4.48964 4.48964
5.55707 4.52257 5.55707
5.56553 5.56553 0.434474
5.55707 5.55707 1.47743
5.56248 5.56248 3
5.55707 5.55707 4.52257
5.56553 5.56553 5.56553

VERTICES 125 250
1 0
1 1
1 2
1 3
1 4
1 5
1 6
1 7
1 8
1 9
1 10
1 11
1 12
1 13
1 14
1 15
1 16
1 17
1 18
1 19
1 20
1 21
1 22
1 23
1 24
1 25
1 26
1 27
1 28
1 29
1 30
1 31
1 32
1 33
1 34
1 35
1 36
1 37
1 38
1 39
1 40
1 41
1 42
1 43
1 44
1 45
1 46
1 47
1 48
1 49
1 50
1 51
1 52
1 53
1 54
1 55
1 56
1 57
1 58
1 59
1 60
1 61
1 62
1 63
1 64
1 65
1 66
1 67
1 68
1 69
1 70
1 71
1 72
1 73
1 74
1 75
1 76
1 77
1 78
1 79
1 80
1 81
1 82
1 83
1 84
1 85
1 86
1 87
1 88
1 89
1 90
1 91
1 92
1 93
1 94
1 95
1 96
1 97
1 98
1 99
1 100
1 101
1 102
1 103
1 104
1 105
1 106
1 107
1 108
1 109
1 110
1 111
1 112
1 113
1 114
1 115
1 116
1 117
1 118
1 119
1 120
1 121
1 122
1 123
1 124

POINT_DATA 125
SCALARS speed double 1
LOOKUP_TABLE default
0.281354
1.18176
0.260023
1.18176
0.281354
1.18176
1.96254
1.29733
1.96254
1.18176
0.260023
1.29733
0.143049
1.29733
0.260023
1.18176
1.96254
1.29733
1.96254
1.18176
0.281354
1.18176
0.260023
1.18176
0.281354
1.18176
1.96254
1.29733
1.96254
1.18176
1.96254
2.74742
2.10764
2.74742
1.96254
1.29733
2.10764
1.40334
2.10764
1.29733
1.96254
2.74742
2.10764
2.74742
1.96254
1.18176
1.96254
1.29733
1.96254
1.18176
0.260023
1.29733
0.143049
1.29733
0.260023
1.29733
2.10764
1.40334
2.10764
1.29733
0.143049
1.40334
9.88446e-16
1.40334
0.143049
1.29733
2.10764
1.40334
2.10764
1.29733
0.260023
1.29733
0.143049
1.29733
0.260023
1.18176
1.96254
1.29733
1.96254
1.18176
1.96254
2.74742
2.10764
2.74742
1.96254
1.29733
2.10764
1.40334
2.10764
1.29733
1.96254
2.74742
2.10764
2.74742
1.96254
1.18176
1.96254
1.29733
1.96254
1.18176
0.281354
1.18176
0.260023
1.18176
0.281354
1.18176
1.96254
1.29733
1.96254
1.18176
0.260023
1.29733
0.143049
1.29733
0.260023
1.18176
1.96254
1.29733
1.96254
1.18176
0.281354
1.18176
0.260023
1.18176
0.281354

SCALARS mass double 1
LOOKUP_TABLE default
1
1
1
1
1
1
1
1
1
1
1
1
1
1
1
1
1
1
1
1
1
1
1
1
1
1
1
1
1
1
1
1
1
1
1
1
1
1
1
1
1
1
1
1
1
1
1
1
1
1
1
1
1
1
1
1
1
1
1
1
1
1
1
1
1
1
1
1
1
1
1
1
1
1
1
1
1
1
1
1
1
1
1
1
1
1
1
1
1
1
1
1
1
1
1
1
1
1
1
1
1
1
1
1
1
1
1
1
1
1
1
1
1
1
1
1
1
1
1
1
1
1
1
1
1
