# vtk DataFile Version 3.0
Molecular dynamics particles
ASCII
DATASET POLYDATA
POINTS 125 double
0.403541 0.403541 0.403541
0.438634 0.438634 1.69047
0.424195 0.424195 3
0.438634 0.438634 4.30953
0.403541 0.403541 5.59646
0.438634 1.69047 0.438634
0.490624 1.7426 1.7426
0.469649 1.72639 3
0.490624 1.7426 4.2574
0.438634 1.69047 5.56137
0.424195 3 0.424195
0.469649 3 1.72639
0.452693 3 3
0.469649 3 4.27361
0.424195 3 5.5758
0.438634 4.30953 0.438634
0.490624 4.2574 1.7426
0.469649 4.27361 3
0.490624 4.2574 4.2574
0.438634 4.30953 5.56137
0.403541 5.59646 0.403541
0.438634 5.56137 1.69047
0.424195 5.5758 3
0.438634 5.56137 4.30953
0.403541 5.59646 5.59646
1.69047 0.438634 0.438634
1.7426 0.490624 1.7426
1.72639 0.469649 3
1.7426 0.490624 4.2574
1.69047 0.438634 5.56137
1.7426 1.7426 0.490624
1.80675 1.80675 1.80675
1.78722 1.78722 3
1.80675 1.80675 4.19325
1.7426 1.7426 5.50938
1.72639 3 0.469649
1.78722 3 1.78722
1.77004 3 3
1.78722 3 4.21278
1.72639 3 5.53035
1.7426 4.2574 0.490624
1.80675 4.19325 1.80675
1.78722 4.21278 3
1.80675 4.19325 4.19325
1.7426 4.2574 5.50938
1.69047 5.56137 0.438634
1.7426 5.50938 1.7426
1.72639 5.53035 3
1.7426 5.50938 4.2574
1.69047 5.56137 5.56137
3 0.424195 0.424195
3 0.469649 1.72639
3 0.452693 3
3 0.469649 4.27361
3 0.424195 5.5758
3 1.72639 0.469649
3 1.78722 1.78722
3 1.77004 3
3 1.78722 4.21278
3 1.72639 5.53035
3 3 0.452693
3 3 1.77004
3 3 3
3 3 4.22996
3 3 5.54731
3 4.27361 0.469649
3 4.21278 1.78722
3 4.22996 3
3 4.21278 4.21278
3 4.27361 5.53035
3 5.5758 0.424195
3 5.53035 1.72639
3 5.54731 3
3 5.53035 4.27361
3 5.5758 5.5758
4.30953 0.438634 0.438634
4.2574 0.490624 1.7426
4.27361 0.469649 3
4.2574 0.490624 4.2574
4.30953 0.438634 5.56137
4.2574 1.7426 0.490624
4.19325 1.80675 1.80675
4.21278 1.78722 3
4.19325 1.80675 4.19325
4.2574 1.7426 5.50938
4.27361 3 0.469649
4.21278 3 1.78722
4.22996 3 3
4.21278 3 4.21278
4.27361 3 5.53035
4.2574 4.2574 0.490624
4.19325 4.19325 1.80675
4.21278 4.21278 3
4.19325 4.19325 4.19325
4.2574 4.2574 5.50938
4.30953 5.56137 0.438634
4.2574 5.50938 1.7426
4.27361 5.53035 3
4.2574 5.50938 4.2574
4.30953 5.56137 5.56137
5.59646 0.403541 0.403541
5.56137 0.438634 1.69047
5.5758 0.424195 3
5.56137 0.438634 4.30953
5.59646 0.403541 5.59646
5.56137 1.69047 0.438634
5.50938 1.7426 1.7426
5.53035 1.72639 3
5.50938 1.7426 4.2574
5.56137 1.69047 5.56137
5.5758 3 0.424195
5.53035 3 1.72639
5.54731 3 3
5.53035 3 4.27361
5.5758 3 5.5758
5.56137 4.30953 0.438634
5.50938 4.2574 1.7426
5.53035 4.27361 3
5.50938 4.2574 4.2574
5.56137 4.30953 5.56137
5.59646 5.59646 0.403541
5.56137 5.56137 1.69047
5.5758 5.5758 3
5.56137 5.56137 4.30953
5.59646 5.59646 5.59646

VERTICES 125 250
1 0
1 1
1 2
1 3
1 4
1 5
1 6
1 7
1 8
1 9
1 10
1 11
1 12
1 13
1 14
1 15
1 16
1 17
1 18
1 19
1 20
1 21
1 22
1 23
1 24
1 25
1 26
1 27
1 28
1 29
1 30
1 31
1 32
1 33
1 34
1 35
1 36
1 37
1 38
1 39
1 40
1 41
1 42
1 43
1 44
1 45
1 46
1 47
1 48
1 49
1 50
1 51
1 52
1 53
1 54
1 55
1 56
1 57
1 58
1 59
1 60
1 61
1 62
1 63
1 64
1 65
1 66
1 67
1 68
1 69
1 70
1 71
1 72
1 73
1 74
1 75
1 76
1 77
1 78
1 79
1 80
1 81
1 82
1 83
1 84
1 85
1 86
1 87
1 88
1 89
1 90
1 91
1 92
1 93
1 94
1 95
1 96
1 97
1 98
1 99
1 100
1 101
1 102
1 103
1 104
1 105
1 106
1 107
1 108
1 109
1 110
1 111
1 112
1 113
1 114
1 115
1 116
1 117
1 118
1 119
1 120
1 121
1 122
1 123
1 124

POINT_DATA 125
SCALARS speed double 1
LOOKUP_TABLE default
0.00994175
1.36565
0.226721
1.36565
0.00994175
1.36565
2.09882
1.44497
2.09882
1.36565
0.226721
1.44497
0.352815
1.44497
0.226721
1.36565
2.09882
1.44497
2.09882
1.36565
0.00994175
1.36565
0.226721
1.36565
0.00994175
1.36565
2.09882
1.44497
2.09882
1.36565
2.09882
2.74213
2.1534
2.74213
2.09882
1.44497
2.1534
1.46829
2.1534
1.44497
2.09882
2.74213
2.1534
2.74213
2.09882
1.36565
2.09882
1.44497
2.09882
1.36565
0.226721
1.44497
0.352815
1.44497
0.226721
1.44497
2.1534
1.46829
2.1534
1.44497
0.352815
1.46829
4.92944e-14
1.46829
0.352815
1.44497
2.1534
1.46829
2.1534
1.44497
0.226721
1.44497
0.352815
1.44497
0.226721
1.36565
2.09882
1.44497
2.09882
1.36565
2.09882
2.74213
2.1534
2.74213
2.09882
1.44497
2.1534
1.46829
2.1534
1.44497
2.09882
2.74213
2.1534
2.74213
2.09882
1.36565
2.09882
1.44497
2.09882
1.36565
0.00994175
1.36565
0.226721
1.36565
0.00994175
1.36565
2.09882
1.44497
2.09882
1.36565
0.226721
1.44497
0.352815
1.44497
0.226721
1.36565
2.09882
1.44497
2.09882
1.36565
0.00994175
1.36565
0.226721
1.36565
0.00994175

SCALARS mass double 1
LOOKUP_TABLE default
1
1
1
1
1
1
1
1
1
1
1
1
1
1
1
1
1
1
1
1
1
1
1
1
1
1
1
1
1
1
1
1
1
1
1
1
1
1
1
1
1
1
1
1
1
1
1
1
1
1
1
1
1
1
1
1
1
1
1
1
1
1
1
1
1
1
1
1
1
1
1
1
1
1
1
1
1
1
1
1
1
1
1
1
1
1
1
1
1
1
1
1
1
1
1
1
1
1
1
1
1
1
1
1
1
1
1
1
1
1
1
1
1
1
1
1
1
1
1
1
1
1
1
1
1
