# vtk DataFile Version 3.0
Molecular dynamics particles
ASCII
DATASET POLYDATA
POINTS 125 double
0.431268 0.431268 0.431268
0.444374 0.444374 1.44131
0.438986 0.438986 3
0.444374 0.444374 4.55869
0.431268 0.431268 5.56873
0.444374 1.44131 0.444374
0.457153 1.46181 1.46181
0.451449 1.4607 3
0.457153 1.46181 4.53819
0.444374 1.44131 5.55563
0.438986 3 0.438986
0.451449 3 1.4607
0.446318 3 3
0.451449 3 4.5393
0.438986 3 5.56101
0.444374 4.55869 0.444374
0.457153 4.53819 1.46181
0.451449 4.5393 3
0.457153 4.53819 4.53819
0.444374 4.55869 5.55563
0.431268 5.56873 0.431268
0.444374 5.55563 1.44131
0.438986 5.56101 3
0.444374 5.55563 4.55869
0.431268 5.56873 5.56873
1.44131 0.444374 0.444374
1.46181 0.457153 1.46181
1.4607 0.451449 3
1.46181 0.457153 4.53819
1.44131 0.444374 5.55563
1.46181 1.46181 0.457153
1.49277 1.49277 1.49277
1.48957 1.48957 3
1.49277 1.49277 4.50723
1.46181 1.46181 5.54285
1.4607 3 0.451449
1.48957 3 1.48957
1.48703 3 3
1.48957 3 4.51043
1.4607 3 5.54855
1.46181 4.53819 0.457153
1.49277 4.50723 1.49277
1.48957 4.51043 3
1.49277 4.50723 4.50723
1.46181 4.53819 5.54285
1.44131 5.55563 0.444374
1.46181 5.54285 1.46181
1.4607 5.54855 3
1.46181 5.54285 4.53819
1.44131 5.55563 5.55563
3 0.438986 0.438986
3 0.451449 1.4607
3 0.446318 3
3 0.451449 4.5393
3 0.438986 5.56101
3 1.4607 0.451449
3 1.48957 1.48957
3 1.48703 3
3 1.48957 4.51043
3 1.4607 5.54855
3 3 0.446318
3 3 1.48703
3 3 3
3 3 4.51297
3 3 5.55368
3 4.5393 0.451449
3 4.51043 1.48957
3 4.51297 3
3 4.51043 4.51043
3 4.5393 5.54855
3 5.56101 0.438986
3 5.54855 1.4607
3 5.55368 3
3 5.54855 4.5393
3 5.56101 5.56101
4.55869 0.444374 0.444374
4.53819 0.457153 1.46181
4.5393 0.451449 3
4.53819 0.457153 4.53819
4.55869 0.444374 5.55563
4.53819 1.46181 0.457153
4.50723 1.49277 1.49277
4.51043 1.48957 3
4.50723 1.49277 4.50723
4.53819 1.46181 5.54285
4.5393 3 0.451449
4.51043 3 1.48957
4.51297 3 3
4.51043 3 4.51043
4.5393 3 5.54855
4.53819 4.53819 0.457153
4.50723 4.50723 1.49277
4.51043 4.51043 3
4.50723 4.50723 4.50723
4.53819 4.53819 5.54285
4.55869 5.55563 0.444374
4.53819 5.54285 1.46181
4.5393 5.54855 3
4.53819 5.54285 4.53819
4.55869 5.55563 5.55563
5.56873 0.431268 0.431268
5.55563 0.444374 1.44131
5.56101 0.438986 3
5.55563 0.444374 4.55869
5.56873 0.431268 5.56873
5.55563 1.44131 0.444374
5.54285 1.46181 1.46181
5.54855 1.4607 3
5.54285 1.46181 4.53819
5.55563 1.44131 5.55563
5.56101 3 0.438986
5.54855 3 1.4607
5.55368 3 3
5.54855 3 4.5393
5.56101 3 5.56101
5.55563 4.55869 0.444374
5.54285 4.53819 1.46181
5.54855 4.5393 3
5.54285 4.53819 4.53819
5.55563 4.55869 5.55563
5.56873 5.56873 0.431268
5.55563 5.55563 1.44131
5.56101 5.56101 3
5.55563 5.55563 4.55869
5.56873 5.56873 5.56873

VERTICES 125 250
1 0
1 1
1 2
1 3
1 4
1 5
1 6
1 7
1 8
1 9
1 10
1 11
1 12
1 13
1 14
1 15
1 16
1 17
1 18
1 19
1 20
1 21
1 22
1 23
1 24
1 25
1 26
1 27
1 28
1 29
1 30
1 31
1 32
1 33
1 34
1 35
1 36
1 37
1 38
1 39
1 40
1 41
1 42
1 43
1 44
1 45
1 46
1 47
1 48
1 49
1 50
1 51
1 52
1 53
1 54
1 55
1 56
1 57
1 58
1 59
1 60
1 61
1 62
1 63
1 64
1 65
1 66
1 67
1 68
1 69
1 70
1 71
1 72
1 73
1 74
1 75
1 76
1 77
1 78
1 79
1 80
1 81
1 82
1 83
1 84
1 85
1 86
1 87
1 88
1 89
1 90
1 91
1 92
1 93
1 94
1 95
1 96
1 97
1 98
1 99
1 100
1 101
1 102
1 103
1 104
1 105
1 106
1 107
1 108
1 109
1 110
1 111
1 112
1 113
1 114
1 115
1 116
1 117
1 118
1 119
1 120
1 121
1 122
1 123
1 124

POINT_DATA 125
SCALARS speed double 1
LOOKUP_TABLE default
0.676566
0.634743
0.256116
0.634743
0.676566
0.634743
1.36787
0.878261
1.36787
0.634743
0.256116
0.878261
0.0454369
0.878261
0.256116
0.634743
1.36787
0.878261
1.36787
0.634743
0.676566
0.634743
0.256116
0.634743
0.676566
0.634743
1.36787
0.878261
1.36787
0.634743
1.36787
2.30625
1.7353
2.30625
1.36787
0.878261
1.7353
1.13436
1.7353
0.878261
1.36787
2.30625
1.7353
2.30625
1.36787
0.634743
1.36787
0.878261
1.36787
0.634743
0.256116
0.878261
0.0454369
0.878261
0.256116
0.878261
1.7353
1.13436
1.7353
0.878261
0.0454369
1.13436
1.275e-14
1.13436
0.0454369
0.878261
1.7353
1.13436
1.7353
0.878261
0.256116
0.878261
0.0454369
0.878261
0.256116
0.634743
1.36787
0.878261
1.36787
0.634743
1.36787
2.30625
1.7353
2.30625
1.36787
0.878261
1.7353
1.13436
1.7353
0.878261
1.36787
2.30625
1.7353
2.30625
1.36787
0.634743
1.36787
0.878261
1.36787
0.634743
0.676566
0.634743
0.256116
0.634743
0.676566
0.634743
1.36787
0.878261
1.36787
0.634743
0.256116
0.878261
0.0454369
0.878261
0.256116
0.634743
1.36787
0.878261
1.36787
0.634743
0.676566
0.634743
0.256116
0.634743
0.676566

SCALARS mass double 1
LOOKUP_TABLE default
1
1
1
1
1
1
1
1
1
1
1
1
1
1
1
1
1
1
1
1
1
1
1
1
1
1
1
1
1
1
1
1
1
1
1
1
1
1
1
1
1
1
1
1
1
1
1
1
1
1
1
1
1
1
1
1
1
1
1
1
1
1
1
1
1
1
1
1
1
1
1
1
1
1
1
1
1
1
1
1
1
1
1
1
1
1
1
1
1
1
1
1
1
1
1
1
1
1
1
1
1
1
1
1
1
1
1
1
1
1
1
1
1
1
1
1
1
1
1
1
1
1
1
1
1
