# vtk DataFile Version 3.0
Molecular dynamics particles
ASCII
DATASET POLYDATA
POINTS 125 double
0.0695484 0.0695484 0.0695484
0.0752669 0.0752669 1.49861
0.075375 0.075375 3
0.0752669 0.0752669 4.50139
0.0695484 0.0695484 5.93045
0.0752669 1.49861 0.0752669
0.0819636 1.4987 1.4987
0.082123 1.49875 3
0.0819636 1.4987 4.5013
0.0752669 1.49861 5.92473
0.075375 3 0.075375
0.082123 3 1.49875
0.0822933 3 3
0.082123 3 4.50125
0.075375 3 5.92462
0.0752669 4.50139 0.0752669
0.0819636 4.5013 1.4987
0.082123 4.50125 3
0.0819636 4.5013 4.5013
0.0752669 4.50139 5.92473
0.0695484 5.93045 0.0695484
0.0752669 5.92473 1.49861
0.075375 5.92462 3
0.0752669 5.92473 4.50139
0.0695484 5.93045 5.93045
1.49861 0.0752669 0.0752669
1.4987 0.0819636 1.4987
1.49875 0.082123 3
1.4987 0.0819636 4.5013
1.49861 0.0752669 5.92473
1.4987 1.4987 0.0819636
1.49886 1.49886 1.49886
1.49893 1.49893 3
1.49886 1.49886 4.50114
1.4987 1.4987 5.91804
1.49875 3 0.082123
1.49893 3 1.49893
1.499 3 3
1.49893 3 4.50107
1.49875 3 5.91788
1.4987 4.5013 0.0819636
1.49886 4.50114 1.49886
1.49893 4.50107 3
1.49886 4.50114 4.50114
1.4987 4.5013 5.91804
1.49861 5.92473 0.0752669
1.4987 5.91804 1.4987
1.49875 5.91788 3
1.4987 5.91804 4.5013
1.49861 5.92473 5.92473
3 0.075375 0.075375
3 0.082123 1.49875
3 0.0822933 3
3 0.082123 4.50125
3 0.075375 5.92462
3 1.49875 0.082123
3 1.49893 1.49893
3 1.499 3
3 1.49893 4.50107
3 1.49875 5.91788
3 3 0.0822933
3 3 1.499
3 3 3
3 3 4.501
3 3 5.91771
3 4.50125 0.082123
3 4.50107 1.49893
3 4.501 3
3 4.50107 4.50107
3 4.50125 5.91788
3 5.92462 0.075375
3 5.91788 1.49875
3 5.91771 3
3 5.91788 4.50125
3 5.92462 5.92462
4.50139 0.0752669 0.0752669
4.5013 0.0819636 1.4987
4.50125 0.082123 3
4.5013 0.0819636 4.5013
4.50139 0.0752669 5.92473
4.5013 1.4987 0.0819636
4.50114 1.49886 1.49886
4.50107 1.49893 3
4.50114 1.49886 4.50114
4.5013 1.4987 5.91804
4.50125 3 0.082123
4.50107 3 1.49893
4.501 3 3
4.50107 3 4.50107
4.50125 3 5.91788
4.5013 4.5013 0.0819636
4.50114 4.50114 1.49886
4.50107 4.50107 3
4.50114 4.50114 4.50114
4.5013 4.5013 5.91804
4.50139 5.92473 0.0752669
4.5013 5.91804 1.4987
4.50125 5.91788 3
4.5013 5.91804 4.5013
4.50139 5.92473 5.92473
5.93045 0.0695484 0.0695484
5.92473 0.0752669 1.49861
5.92462 0.075375 3
5.92473 0.0752669 4.50139
5.93045 0.0695484 5.93045
5.92473 1.49861 0.0752669
5.91804 1.4987 1.4987
5.91788 1.49875 3
5.91804 1.4987 4.5013
5.92473 1.49861 5.92473
5.92462 3 0.075375
5.91788 3 1.49875
5.91771 3 3
5.91788 3 4.50125
5.92462 3 5.92462
5.92473 4.50139 0.0752669
5.91804 4.5013 1.4987
5.91788 4.50125 3
5.91804 4.5013 4.5013
5.92473 4.50139 5.92473
5.93045 5.93045 0.0695484
5.92473 5.92473 1.49861
5.92462 5.92462 3
5.92473 5.92473 4.50139
5.93045 5.93045 5.93045

VERTICES 125 250
1 0
1 1
1 2
1 3
1 4
1 5
1 6
1 7
1 8
1 9
1 10
1 11
1 12
1 13
1 14
1 15
1 16
1 17
1 18
1 19
1 20
1 21
1 22
1 23
1 24
1 25
1 26
1 27
1 28
1 29
1 30
1 31
1 32
1 33
1 34
1 35
1 36
1 37
1 38
1 39
1 40
1 41
1 42
1 43
1 44
1 45
1 46
1 47
1 48
1 49
1 50
1 51
1 52
1 53
1 54
1 55
1 56
1 57
1 58
1 59
1 60
1 61
1 62
1 63
1 64
1 65
1 66
1 67
1 68
1 69
1 70
1 71
1 72
1 73
1 74
1 75
1 76
1 77
1 78
1 79
1 80
1 81
1 82
1 83
1 84
1 85
1 86
1 87
1 88
1 89
1 90
1 91
1 92
1 93
1 94
1 95
1 96
1 97
1 98
1 99
1 100
1 101
1 102
1 103
1 104
1 105
1 106
1 107
1 108
1 109
1 110
1 111
1 112
1 113
1 114
1 115
1 116
1 117
1 118
1 119
1 120
1 121
1 122
1 123
1 124

POINT_DATA 125
SCALARS speed double 1
LOOKUP_TABLE default
0.81526
0.721585
0.720722
0.721585
0.81526
0.721585
0.557127
0.556279
0.557127
0.721585
0.720722
0.556279
0.555526
0.556279
0.720722
0.721585
0.557127
0.556279
0.557127
0.721585
0.81526
0.721585
0.720722
0.721585
0.81526
0.721585
0.557127
0.556279
0.557127
0.721585
0.557127
0.0542967
0.0437568
0.0542967
0.557127
0.556279
0.0437568
0.0305047
0.0437568
0.556279
0.557127
0.0542967
0.0437568
0.0542967
0.557127
0.721585
0.557127
0.556279
0.557127
0.721585
0.720722
0.556279
0.555526
0.556279
0.720722
0.556279
0.0437568
0.0305047
0.0437568
0.556279
0.555526
0.0305047
8.0416e-15
0.0305047
0.555526
0.556279
0.0437568
0.0305047
0.0437568
0.556279
0.720722
0.556279
0.555526
0.556279
0.720722
0.721585
0.557127
0.556279
0.557127
0.721585
0.557127
0.0542967
0.0437568
0.0542967
0.557127
0.556279
0.0437568
0.0305047
0.0437568
0.556279
0.557127
0.0542967
0.0437568
0.0542967
0.557127
0.721585
0.557127
0.556279
0.557127
0.721585
0.81526
0.721585
0.720722
0.721585
0.81526
0.721585
0.557127
0.556279
0.557127
0.721585
0.720722
0.556279
0.555526
0.556279
0.720722
0.721585
0.557127
0.556279
0.557127
0.721585
0.81526
0.721585
0.720722
0.721585
0.81526

SCALARS mass double 1
LOOKUP_TABLE default
1
1
1
1
1
1
1
1
1
1
1
1
1
1
1
1
1
1
1
1
1
1
1
1
1
1
1
1
1
1
1
1
1
1
1
1
1
1
1
1
1
1
1
1
1
1
1
1
1
1
1
1
1
1
1
1
1
1
1
1
1
1
1
1
1
1
1
1
1
1
1
1
1
1
1
1
1
1
1
1
1
1
1
1
1
1
1
1
1
1
1
1
1
1
1
1
1
1
1
1
1
1
1
1
1
1
1
1
1
1
1
1
1
1
1
1
1
1
1
1
1
1
1
1
1
