<VTKFile type="UnstructuredGrid" version="0.1">
  <UnstructuredGrid>
  <Piece NumberOfPoints="125" NumberOfCells="0">
    <PointData Scalars="Radius">
      <DataArray type="Float64" Name="Radius" format="ascii">
        0.5
        0.5
        0.5
        0.5
        0.5
        0.5
        0.5
        0.5
        0.5
        0.5
        0.5
        0.5
        0.5
        0.5
        0.5
        0.5
        0.5
        0.5
        0.5
        0.5
        0.5
        0.5
        0.5
        0.5
        0.5
        0.5
        0.5
        0.5
        0.5
        0.5
        0.5
        0.5
        0.5
        0.5
        0.5
        0.5
        0.5
        0.5
        0.5
        0.5
        0.5
        0.5
        0.5
        0.5
        0.5
        0.5
        0.5
        0.5
        0.5
        0.5
        0.5
        0.5
        0.5
        0.5
        0.5
        0.5
        0.5
        0.5
        0.5
        0.5
        0.5
        0.5
        0.5
        0.5
        0.5
        0.5
        0.5
        0.5
        0.5
        0.5
        0.5
        0.5
        0.5
        0.5
        0.5
        0.5
        0.5
        0.5
        0.5
        0.5
        0.5
        0.5
        0.5
        0.5
        0.5
        0.5
        0.5
        0.5
        0.5
        0.5
        0.5
        0.5
        0.5
        0.5
        0.5
        0.5
        0.5
        0.5
        0.5
        0.5
        0.5
        0.5
        0.5
        0.5
        0.5
        0.5
        0.5
        0.5
        0.5
        0.5
        0.5
        0.5
        0.5
        0.5
        0.5
        0.5
        0.5
        0.5
        0.5
        0.5
        0.5
        0.5
        0.5
        0.5
        0.5
      </DataArray>
    </PointData>
    <Points>
      <DataArray type="Float64" NumberOfComponents="3" format="ascii">
        -0.984586 -0.984586 -0.984586
        0.117339 -0.622715 -0.622715
        2 -0.690869 -0.690869
        3.88266 -0.622715 -0.622715
        4.98459 -0.984586 -0.984586
        -0.622715 0.117339 -0.622715
        0.50678 0.50678 -0.301179
        2 0.453022 -0.298784
        3.49322 0.50678 -0.301179
        4.62272 0.117339 -0.622715
        -0.690869 2 -0.690869
        0.453022 2 -0.298784
        2 2 -0.31063
        3.54698 2 -0.298784
        4.69087 2 -0.690869
        -0.622715 3.88266 -0.622715
        0.50678 3.49322 -0.301179
        2 3.54698 -0.298784
        3.49322 3.49322 -0.301179
        4.62272 3.88266 -0.622715
        -0.984586 4.98459 -0.984586
        0.117339 4.62272 -0.622715
        2 4.69087 -0.690869
        3.88266 4.62272 -0.622715
        4.98459 4.98459 -0.984586
        -0.622715 -0.622715 0.117339
        0.50678 -0.301179 0.50678
        2 -0.298784 0.453022
        3.49322 -0.301179 0.50678
        4.62272 -0.622715 0.117339
        -0.301179 0.50678 0.50678
        0.878495 0.878495 0.878495
        2 0.851595 0.851595
        3.12151 0.878495 0.878495
        4.30118 0.50678 0.50678
        -0.298784 2 0.453022
        0.851595 2 0.851595
        2 2 0.841146
        3.14841 2 0.851595
        4.29878 2 0.453022
        -0.301179 3.49322 0.50678
        0.878495 3.12151 0.878495
        2 3.14841 0.851595
        3.12151 3.12151 0.878495
        4.30118 3.49322 0.50678
        -0.622715 4.62272 0.117339
        0.50678 4.30118 0.50678
        2 4.29878 0.453022
        3.49322 4.30118 0.50678
        4.62272 4.62272 0.117339
        -0.690869 -0.690869 2
        0.453022 -0.298784 2
        2 -0.31063 2
        3.54698 -0.298784 2
        4.69087 -0.690869 2
        -0.298784 0.453022 2
        0.851595 0.851595 2
        2 0.841146 2
        3.14841 0.851595 2
        4.29878 0.453022 2
        -0.31063 2 2
        0.841146 2 2
        2 2 2
        3.15885 2 2
        4.31063 2 2
        -0.298784 3.54698 2
        0.851595 3.14841 2
        2 3.15885 2
        3.14841 3.14841 2
        4.29878 3.54698 2
        -0.690869 4.69087 2
        0.453022 4.29878 2
        2 4.31063 2
        3.54698 4.29878 2
        4.69087 4.69087 2
        -0.622715 -0.622715 3.88266
        0.50678 -0.301179 3.49322
        2 -0.298784 3.54698
        3.49322 -0.301179 3.49322
        4.62272 -0.622715 3.88266
        -0.301179 0.50678 3.49322
        0.878495 0.878495 3.12151
        2 0.851595 3.14841
        3.12151 0.878495 3.12151
        4.30118 0.50678 3.49322
        -0.298784 2 3.54698
        0.851595 2 3.14841
        2 2 3.15885
        3.14841 2 3.14841
        4.29878 2 3.54698
        -0.301179 3.49322 3.49322
        0.878495 3.12151 3.12151
        2 3.14841 3.14841
        3.12151 3.12151 3.12151
        4.30118 3.49322 3.49322
        -0.622715 4.62272 3.88266
        0.50678 4.30118 3.49322
        2 4.29878 3.54698
        3.49322 4.30118 3.49322
        4.62272 4.62272 3.88266
        -0.984586 -0.984586 4.98459
        0.117339 -0.622715 4.62272
        2 -0.690869 4.69087
        3.88266 -0.622715 4.62272
        4.98459 -0.984586 4.98459
        -0.622715 0.117339 4.62272
        0.50678 0.50678 4.30118
        2 0.453022 4.29878
        3.49322 0.50678 4.30118
        4.62272 0.117339 4.62272
        -0.690869 2 4.69087
        0.453022 2 4.29878
        2 2 4.31063
        3.54698 2 4.29878
        4.69087 2 4.69087
        -0.622715 3.88266 4.62272
        0.50678 3.49322 4.30118
        2 3.54698 4.29878
        3.49322 3.49322 4.30118
        4.62272 3.88266 4.62272
        -0.984586 4.98459 4.98459
        0.117339 4.62272 4.62272
        2 4.69087 4.69087
        3.88266 4.62272 4.62272
        4.98459 4.98459 4.98459
      </DataArray>
    </Points>
    <Cells>
      <DataArray type="Int32" Name="connectivity" format="ascii"/>
      <DataArray type="Int32" Name="offsets" format="ascii"/>
      <DataArray type="UInt8" Name="types" format="ascii"/>
    </Cells>
  </Piece>
  </UnstructuredGrid>
</VTKFile>
