<VTKFile type="UnstructuredGrid" version="0.1">
  <UnstructuredGrid>
  <Piece NumberOfPoints="125" NumberOfCells="0">
    <PointData Scalars="Radius">
      <DataArray type="Float64" Name="Radius" format="ascii">
        0.5
        0.5
        0.5
        0.5
        0.5
        0.5
        0.5
        0.5
        0.5
        0.5
        0.5
        0.5
        0.5
        0.5
        0.5
        0.5
        0.5
        0.5
        0.5
        0.5
        0.5
        0.5
        0.5
        0.5
        0.5
        0.5
        0.5
        0.5
        0.5
        0.5
        0.5
        0.5
        0.5
        0.5
        0.5
        0.5
        0.5
        0.5
        0.5
        0.5
        0.5
        0.5
        0.5
        0.5
        0.5
        0.5
        0.5
        0.5
        0.5
        0.5
        0.5
        0.5
        0.5
        0.5
        0.5
        0.5
        0.5
        0.5
        0.5
        0.5
        0.5
        0.5
        0.5
        0.5
        0.5
        0.5
        0.5
        0.5
        0.5
        0.5
        0.5
        0.5
        0.5
        0.5
        0.5
        0.5
        0.5
        0.5
        0.5
        0.5
        0.5
        0.5
        0.5
        0.5
        0.5
        0.5
        0.5
        0.5
        0.5
        0.5
        0.5
        0.5
        0.5
        0.5
        0.5
        0.5
        0.5
        0.5
        0.5
        0.5
        0.5
        0.5
        0.5
        0.5
        0.5
        0.5
        0.5
        0.5
        0.5
        0.5
        0.5
        0.5
        0.5
        0.5
        0.5
        0.5
        0.5
        0.5
        0.5
        0.5
        0.5
        0.5
        0.5
        0.5
        0.5
      </DataArray>
    </PointData>
    <Points>
      <DataArray type="Float64" NumberOfComponents="3" format="ascii">
        -0.656019 -0.656019 -0.656019
        0.423504 -0.54983 -0.54983
        2 -0.562909 -0.562909
        3.5765 -0.54983 -0.54983
        4.65602 -0.656019 -0.656019
        -0.54983 0.423504 -0.54983
        0.535126 0.535126 -0.411049
        2 0.540443 -0.426085
        3.46487 0.535126 -0.411049
        4.54983 0.423504 -0.54983
        -0.562909 2 -0.562909
        0.540443 2 -0.426085
        2 2 -0.437728
        3.45956 2 -0.426085
        4.56291 2 -0.562909
        -0.54983 3.5765 -0.54983
        0.535126 3.46487 -0.411049
        2 3.45956 -0.426085
        3.46487 3.46487 -0.411049
        4.54983 3.5765 -0.54983
        -0.656019 4.65602 -0.656019
        0.423504 4.54983 -0.54983
        2 4.56291 -0.562909
        3.5765 4.54983 -0.54983
        4.65602 4.65602 -0.656019
        -0.54983 -0.54983 0.423504
        0.535126 -0.411049 0.535126
        2 -0.426085 0.540443
        3.46487 -0.411049 0.535126
        4.54983 -0.54983 0.423504
        -0.411049 0.535126 0.535126
        0.682025 0.682025 0.682025
        2 0.686138 0.686138
        3.31798 0.682025 0.682025
        4.41105 0.535126 0.535126
        -0.426085 2 0.540443
        0.686138 2 0.686138
        2 2 0.691452
        3.31386 2 0.686138
        4.42608 2 0.540443
        -0.411049 3.46487 0.535126
        0.682025 3.31798 0.682025
        2 3.31386 0.686138
        3.31798 3.31798 0.682025
        4.41105 3.46487 0.535126
        -0.54983 4.54983 0.423504
        0.535126 4.41105 0.535126
        2 4.42608 0.540443
        3.46487 4.41105 0.535126
        4.54983 4.54983 0.423504
        -0.562909 -0.562909 2
        0.540443 -0.426085 2
        2 -0.437728 2
        3.45956 -0.426085 2
        4.56291 -0.562909 2
        -0.426085 0.540443 2
        0.686138 0.686138 2
        2 0.691452 2
        3.31386 0.686138 2
        4.42608 0.540443 2
        -0.437728 2 2
        0.691452 2 2
        2 2 2
        3.30855 2 2
        4.43773 2 2
        -0.426085 3.45956 2
        0.686138 3.31386 2
        2 3.30855 2
        3.31386 3.31386 2
        4.42608 3.45956 2
        -0.562909 4.56291 2
        0.540443 4.42608 2
        2 4.43773 2
        3.45956 4.42608 2
        4.56291 4.56291 2
        -0.54983 -0.54983 3.5765
        0.535126 -0.411049 3.46487
        2 -0.426085 3.45956
        3.46487 -0.411049 3.46487
        4.54983 -0.54983 3.5765
        -0.411049 0.535126 3.46487
        0.682025 0.682025 3.31798
        2 0.686138 3.31386
        3.31798 0.682025 3.31798
        4.41105 0.535126 3.46487
        -0.426085 2 3.45956
        0.686138 2 3.31386
        2 2 3.30855
        3.31386 2 3.31386
        4.42608 2 3.45956
        -0.411049 3.46487 3.46487
        0.682025 3.31798 3.31798
        2 3.31386 3.31386
        3.31798 3.31798 3.31798
        4.41105 3.46487 3.46487
        -0.54983 4.54983 3.5765
        0.535126 4.41105 3.46487
        2 4.42608 3.45956
        3.46487 4.41105 3.46487
        4.54983 4.54983 3.5765
        -0.656019 -0.656019 4.65602
        0.423504 -0.54983 4.54983
        2 -0.562909 4.56291
        3.5765 -0.54983 4.54983
        4.65602 -0.656019 4.65602
        -0.54983 0.423504 4.54983
        0.535126 0.535126 4.41105
        2 0.540443 4.42608
        3.46487 0.535126 4.41105
        4.54983 0.423504 4.54983
        -0.562909 2 4.56291
        0.540443 2 4.42608
        2 2 4.43773
        3.45956 2 4.42608
        4.56291 2 4.56291
        -0.54983 3.5765 4.54983
        0.535126 3.46487 4.41105
        2 3.45956 4.42608
        3.46487 3.46487 4.41105
        4.54983 3.5765 4.54983
        -0.656019 4.65602 4.65602
        0.423504 4.54983 4.54983
        2 4.56291 4.56291
        3.5765 4.54983 4.54983
        4.65602 4.65602 4.65602
      </DataArray>
    </Points>
    <Cells>
      <DataArray type="Int32" Name="connectivity" format="ascii"/>
      <DataArray type="Int32" Name="offsets" format="ascii"/>
      <DataArray type="UInt8" Name="types" format="ascii"/>
    </Cells>
  </Piece>
  </UnstructuredGrid>
</VTKFile>
