<VTKFile type="UnstructuredGrid" version="0.1">
  <UnstructuredGrid>
  <Piece NumberOfPoints="125" NumberOfCells="0">
    <PointData Scalars="Radius">
      <DataArray type="Float64" Name="Radius" format="ascii">
        0.5
        0.5
        0.5
        0.5
        0.5
        0.5
        0.5
        0.5
        0.5
        0.5
        0.5
        0.5
        0.5
        0.5
        0.5
        0.5
        0.5
        0.5
        0.5
        0.5
        0.5
        0.5
        0.5
        0.5
        0.5
        0.5
        0.5
        0.5
        0.5
        0.5
        0.5
        0.5
        0.5
        0.5
        0.5
        0.5
        0.5
        0.5
        0.5
        0.5
        0.5
        0.5
        0.5
        0.5
        0.5
        0.5
        0.5
        0.5
        0.5
        0.5
        0.5
        0.5
        0.5
        0.5
        0.5
        0.5
        0.5
        0.5
        0.5
        0.5
        0.5
        0.5
        0.5
        0.5
        0.5
        0.5
        0.5
        0.5
        0.5
        0.5
        0.5
        0.5
        0.5
        0.5
        0.5
        0.5
        0.5
        0.5
        0.5
        0.5
        0.5
        0.5
        0.5
        0.5
        0.5
        0.5
        0.5
        0.5
        0.5
        0.5
        0.5
        0.5
        0.5
        0.5
        0.5
        0.5
        0.5
        0.5
        0.5
        0.5
        0.5
        0.5
        0.5
        0.5
        0.5
        0.5
        0.5
        0.5
        0.5
        0.5
        0.5
        0.5
        0.5
        0.5
        0.5
        0.5
        0.5
        0.5
        0.5
        0.5
        0.5
        0.5
        0.5
        0.5
        0.5
      </DataArray>
    </PointData>
    <Points>
      <DataArray type="Float64" NumberOfComponents="3" format="ascii">
        -0.743969 -0.743969 -0.743969
        0.31079 -0.571411 -0.571411
        2 -0.598209 -0.598209
        3.68921 -0.571411 -0.571411
        4.74397 -0.743969 -0.743969
        -0.571411 0.31079 -0.571411
        0.47569 0.47569 -0.347204
        2 0.47385 -0.384262
        3.52431 0.47569 -0.347204
        4.57141 0.31079 -0.571411
        -0.598209 2 -0.598209
        0.47385 2 -0.384262
        2 2 -0.410743
        3.52615 2 -0.384262
        4.59821 2 -0.598209
        -0.571411 3.68921 -0.571411
        0.47569 3.52431 -0.347204
        2 3.52615 -0.384262
        3.52431 3.52431 -0.347204
        4.57141 3.68921 -0.571411
        -0.743969 4.74397 -0.743969
        0.31079 4.57141 -0.571411
        2 4.59821 -0.598209
        3.68921 4.57141 -0.571411
        4.74397 4.74397 -0.743969
        -0.571411 -0.571411 0.31079
        0.47569 -0.347204 0.47569
        2 -0.384262 0.47385
        3.52431 -0.347204 0.47569
        4.57141 -0.571411 0.31079
        -0.347204 0.47569 0.47569
        0.695647 0.695647 0.695647
        2 0.691554 0.691554
        3.30435 0.695647 0.695647
        4.3472 0.47569 0.47569
        -0.384262 2 0.47385
        0.691554 2 0.691554
        2 2 0.694348
        3.30845 2 0.691554
        4.38426 2 0.47385
        -0.347204 3.52431 0.47569
        0.695647 3.30435 0.695647
        2 3.30845 0.691554
        3.30435 3.30435 0.695647
        4.3472 3.52431 0.47569
        -0.571411 4.57141 0.31079
        0.47569 4.3472 0.47569
        2 4.38426 0.47385
        3.52431 4.3472 0.47569
        4.57141 4.57141 0.31079
        -0.598209 -0.598209 2
        0.47385 -0.384262 2
        2 -0.410743 2
        3.52615 -0.384262 2
        4.59821 -0.598209 2
        -0.384262 0.47385 2
        0.691554 0.691554 2
        2 0.694348 2
        3.30845 0.691554 2
        4.38426 0.47385 2
        -0.410743 2 2
        0.694348 2 2
        2 2 2
        3.30565 2 2
        4.41074 2 2
        -0.384262 3.52615 2
        0.691554 3.30845 2
        2 3.30565 2
        3.30845 3.30845 2
        4.38426 3.52615 2
        -0.598209 4.59821 2
        0.47385 4.38426 2
        2 4.41074 2
        3.52615 4.38426 2
        4.59821 4.59821 2
        -0.571411 -0.571411 3.68921
        0.47569 -0.347204 3.52431
        2 -0.384262 3.52615
        3.52431 -0.347204 3.52431
        4.57141 -0.571411 3.68921
        -0.347204 0.47569 3.52431
        0.695647 0.695647 3.30435
        2 0.691554 3.30845
        3.30435 0.695647 3.30435
        4.3472 0.47569 3.52431
        -0.384262 2 3.52615
        0.691554 2 3.30845
        2 2 3.30565
        3.30845 2 3.30845
        4.38426 2 3.52615
        -0.347204 3.52431 3.52431
        0.695647 3.30435 3.30435
        2 3.30845 3.30845
        3.30435 3.30435 3.30435
        4.3472 3.52431 3.52431
        -0.571411 4.57141 3.68921
        0.47569 4.3472 3.52431
        2 4.38426 3.52615
        3.52431 4.3472 3.52431
        4.57141 4.57141 3.68921
        -0.743969 -0.743969 4.74397
        0.31079 -0.571411 4.57141
        2 -0.598209 4.59821
        3.68921 -0.571411 4.57141
        4.74397 -0.743969 4.74397
        -0.571411 0.31079 4.57141
        0.47569 0.47569 4.3472
        2 0.47385 4.38426
        3.52431 0.47569 4.3472
        4.57141 0.31079 4.57141
        -0.598209 2 4.59821
        0.47385 2 4.38426
        2 2 4.41074
        3.52615 2 4.38426
        4.59821 2 4.59821
        -0.571411 3.68921 4.57141
        0.47569 3.52431 4.3472
        2 3.52615 4.38426
        3.52431 3.52431 4.3472
        4.57141 3.68921 4.57141
        -0.743969 4.74397 4.74397
        0.31079 4.57141 4.57141
        2 4.59821 4.59821
        3.68921 4.57141 4.57141
        4.74397 4.74397 4.74397
      </DataArray>
    </Points>
    <Cells>
      <DataArray type="Int32" Name="connectivity" format="ascii"/>
      <DataArray type="Int32" Name="offsets" format="ascii"/>
      <DataArray type="UInt8" Name="types" format="ascii"/>
    </Cells>
  </Piece>
  </UnstructuredGrid>
</VTKFile>
