<VTKFile type="UnstructuredGrid" version="0.1">
  <UnstructuredGrid>
  <Piece NumberOfPoints="125" NumberOfCells="0">
    <PointData Scalars="Radius">
      <DataArray type="Float64" Name="Radius" format="ascii">
        0.5
        0.5
        0.5
        0.5
        0.5
        0.5
        0.5
        0.5
        0.5
        0.5
        0.5
        0.5
        0.5
        0.5
        0.5
        0.5
        0.5
        0.5
        0.5
        0.5
        0.5
        0.5
        0.5
        0.5
        0.5
        0.5
        0.5
        0.5
        0.5
        0.5
        0.5
        0.5
        0.5
        0.5
        0.5
        0.5
        0.5
        0.5
        0.5
        0.5
        0.5
        0.5
        0.5
        0.5
        0.5
        0.5
        0.5
        0.5
        0.5
        0.5
        0.5
        0.5
        0.5
        0.5
        0.5
        0.5
        0.5
        0.5
        0.5
        0.5
        0.5
        0.5
        0.5
        0.5
        0.5
        0.5
        0.5
        0.5
        0.5
        0.5
        0.5
        0.5
        0.5
        0.5
        0.5
        0.5
        0.5
        0.5
        0.5
        0.5
        0.5
        0.5
        0.5
        0.5
        0.5
        0.5
        0.5
        0.5
        0.5
        0.5
        0.5
        0.5
        0.5
        0.5
        0.5
        0.5
        0.5
        0.5
        0.5
        0.5
        0.5
        0.5
        0.5
        0.5
        0.5
        0.5
        0.5
        0.5
        0.5
        0.5
        0.5
        0.5
        0.5
        0.5
        0.5
        0.5
        0.5
        0.5
        0.5
        0.5
        0.5
        0.5
        0.5
        0.5
        0.5
      </DataArray>
    </PointData>
    <Points>
      <DataArray type="Float64" NumberOfComponents="3" format="ascii">
        -1.05523 -1.05523 -1.05523
        0.135976 -0.643438 -0.643438
        2.00131 -0.541809 -0.541809
        3.76472 -0.596176 -0.596176
        5.24128 -1.24128 -1.24128
        -0.643438 0.135976 -0.643438
        0.561305 0.561305 -0.19071
        2.00028 0.670113 -0.117871
        3.44072 0.559269 -0.191875
        4.59618 0.235273 -0.596177
        -0.541809 2.00131 -0.541809
        0.670113 2.00028 -0.117871
        2 2 -0.0293279
        3.33004 2 -0.117909
        4.54175 2 -0.541748
        -0.596176 3.76472 -0.596176
        0.559269 3.44072 -0.191875
        2 3.33004 -0.117909
        3.44073 3.44073 -0.191875
        4.59618 3.76473 -0.596177
        -1.24128 5.24128 -1.24128
        0.235273 4.59618 -0.596177
        2 4.54175 -0.541748
        3.76473 4.59618 -0.596177
        5.24128 5.24128 -1.24128
        -0.643438 -0.643438 0.135976
        0.561305 -0.19071 0.561305
        2.00028 -0.117871 0.670113
        3.44072 -0.191875 0.559269
        4.59618 -0.596177 0.235273
        -0.19071 0.561305 0.561305
        0.821836 0.821836 0.821836
        2.00007 0.875446 0.875446
        3.17852 0.821491 0.821491
        4.19187 0.55927 0.55927
        -0.117871 2.00028 0.670113
        0.875446 2.00007 0.875446
        2 2 1.02889
        3.12457 2 0.875429
        4.11791 2 0.669963
        -0.191875 3.44072 0.559269
        0.821491 3.17852 0.821491
        2 3.12457 0.875429
        3.17851 3.17851 0.821493
        4.19187 3.44073 0.559271
        -0.596177 4.59618 0.235273
        0.55927 4.19187 0.55927
        2 4.11791 0.669963
        3.44073 4.19187 0.559271
        4.59618 4.59618 0.235273
        -0.541809 -0.541809 2.00131
        0.670113 -0.117871 2.00028
        2 -0.0293279 2
        3.33004 -0.117909 2
        4.54175 -0.541748 2
        -0.117871 0.670113 2.00028
        0.875446 0.875446 2.00007
        2 1.02889 2
        3.12457 0.875429 2
        4.11791 0.669963 2
        -0.0293279 2 2
        1.02889 2 2
        2 2 2
        2.97111 2 2
        4.02933 2 2
        -0.117909 3.33004 2
        0.875429 3.12457 2
        2 2.97111 2
        3.12457 3.12457 2
        4.11791 3.33004 2
        -0.541748 4.54175 2
        0.669963 4.11791 2
        2 4.02933 2
        3.33004 4.11791 2
        4.54175 4.54175 2
        -0.596176 -0.596176 3.76472
        0.559269 -0.191875 3.44072
        2 -0.117909 3.33004
        3.44073 -0.191875 3.44073
        4.59618 -0.596177 3.76473
        -0.191875 0.559269 3.44072
        0.821491 0.821491 3.17852
        2 0.875429 3.12457
        3.17851 0.821493 3.17851
        4.19187 0.559271 3.44073
        -0.117909 2 3.33004
        0.875429 2 3.12457
        2 2 2.97111
        3.12457 2 3.12457
        4.11791 2 3.33004
        -0.191875 3.44073 3.44073
        0.821493 3.17851 3.17851
        2 3.12457 3.12457
        3.17851 3.17851 3.17851
        4.19187 3.44073 3.44073
        -0.596177 4.59618 3.76473
        0.559271 4.19187 3.44073
        2 4.11791 3.33004
        3.44073 4.19187 3.44073
        4.59618 4.59618 3.76473
        -1.24128 -1.24128 5.24128
        0.235273 -0.596177 4.59618
        2 -0.541748 4.54175
        3.76473 -0.596177 4.59618
        5.24128 -1.24128 5.24128
        -0.596177 0.235273 4.59618
        0.55927 0.55927 4.19187
        2 0.669963 4.11791
        3.44073 0.559271 4.19187
        4.59618 0.235273 4.59618
        -0.541748 2 4.54175
        0.669963 2 4.11791
        2 2 4.02933
        3.33004 2 4.11791
        4.54175 2 4.54175
        -0.596177 3.76473 4.59618
        0.559271 3.44073 4.19187
        2 3.33004 4.11791
        3.44073 3.44073 4.19187
        4.59618 3.76473 4.59618
        -1.24128 5.24128 5.24128
        0.235273 4.59618 4.59618
        2 4.54175 4.54175
        3.76473 4.59618 4.59618
        5.24128 5.24128 5.24128
      </DataArray>
    </Points>
    <Cells>
      <DataArray type="Int32" Name="connectivity" format="ascii"/>
      <DataArray type="Int32" Name="offsets" format="ascii"/>
      <DataArray type="UInt8" Name="types" format="ascii"/>
    </Cells>
  </Piece>
  </UnstructuredGrid>
</VTKFile>
