<VTKFile type="UnstructuredGrid" version="0.1">
  <UnstructuredGrid>
  <Piece NumberOfPoints="125" NumberOfCells="0">
    <PointData Scalars="Radius">
      <DataArray type="Float64" Name="Radius" format="ascii">
        0.5
        0.5
        0.5
        0.5
        0.5
        0.5
        0.5
        0.5
        0.5
        0.5
        0.5
        0.5
        0.5
        0.5
        0.5
        0.5
        0.5
        0.5
        0.5
        0.5
        0.5
        0.5
        0.5
        0.5
        0.5
        0.5
        0.5
        0.5
        0.5
        0.5
        0.5
        0.5
        0.5
        0.5
        0.5
        0.5
        0.5
        0.5
        0.5
        0.5
        0.5
        0.5
        0.5
        0.5
        0.5
        0.5
        0.5
        0.5
        0.5
        0.5
        0.5
        0.5
        0.5
        0.5
        0.5
        0.5
        0.5
        0.5
        0.5
        0.5
        0.5
        0.5
        0.5
        0.5
        0.5
        0.5
        0.5
        0.5
        0.5
        0.5
        0.5
        0.5
        0.5
        0.5
        0.5
        0.5
        0.5
        0.5
        0.5
        0.5
        0.5
        0.5
        0.5
        0.5
        0.5
        0.5
        0.5
        0.5
        0.5
        0.5
        0.5
        0.5
        0.5
        0.5
        0.5
        0.5
        0.5
        0.5
        0.5
        0.5
        0.5
        0.5
        0.5
        0.5
        0.5
        0.5
        0.5
        0.5
        0.5
        0.5
        0.5
        0.5
        0.5
        0.5
        0.5
        0.5
        0.5
        0.5
        0.5
        0.5
        0.5
        0.5
        0.5
        0.5
        0.5
      </DataArray>
    </PointData>
    <Points>
      <DataArray type="Float64" NumberOfComponents="3" format="ascii">
        -0.00312591 -0.00312591 -0.00312591
        1.00003 -0.00289796 -0.00289796
        2 -0.00288949 -0.00288949
        2.99997 -0.00289796 -0.00289796
        4.00313 -0.00312591 -0.00312591
        -0.00289796 1.00003 -0.00289796
        1.00005 1.00005 -0.0026236
        2 1.00005 -0.00261238
        2.99995 1.00005 -0.0026236
        4.0029 1.00003 -0.00289796
        -0.00288949 2 -0.00288949
        1.00005 2 -0.00261238
        2 2 -0.00260117
        2.99995 2 -0.00261238
        4.00289 2 -0.00288949
        -0.00289796 2.99997 -0.00289796
        1.00005 2.99995 -0.0026236
        2 2.99995 -0.00261238
        2.99995 2.99995 -0.0026236
        4.0029 2.99997 -0.00289796
        -0.00312591 4.00313 -0.00312591
        1.00003 4.0029 -0.00289796
        2 4.00289 -0.00288949
        2.99997 4.0029 -0.00289796
        4.00313 4.00313 -0.00312591
        -0.00289796 -0.00289796 1.00003
        1.00005 -0.0026236 1.00005
        2 -0.00261238 1.00005
        2.99995 -0.0026236 1.00005
        4.0029 -0.00289796 1.00003
        -0.0026236 1.00005 1.00005
        1.00007 1.00007 1.00007
        2 1.00007 1.00007
        2.99993 1.00007 1.00007
        4.00262 1.00005 1.00005
        -0.00261238 2 1.00005
        1.00007 2 1.00007
        2 2 1.00007
        2.99993 2 1.00007
        4.00261 2 1.00005
        -0.0026236 2.99995 1.00005
        1.00007 2.99993 1.00007
        2 2.99993 1.00007
        2.99993 2.99993 1.00007
        4.00262 2.99995 1.00005
        -0.00289796 4.0029 1.00003
        1.00005 4.00262 1.00005
        2 4.00261 1.00005
        2.99995 4.00262 1.00005
        4.0029 4.0029 1.00003
        -0.00288949 -0.00288949 2
        1.00005 -0.00261238 2
        2 -0.00260117 2
        2.99995 -0.00261238 2
        4.00289 -0.00288949 2
        -0.00261238 1.00005 2
        1.00007 1.00007 2
        2 1.00007 2
        2.99993 1.00007 2
        4.00261 1.00005 2
        -0.00260117 2 2
        1.00007 2 2
        2 2 2
        2.99993 2 2
        4.0026 2 2
        -0.00261238 2.99995 2
        1.00007 2.99993 2
        2 2.99993 2
        2.99993 2.99993 2
        4.00261 2.99995 2
        -0.00288949 4.00289 2
        1.00005 4.00261 2
        2 4.0026 2
        2.99995 4.00261 2
        4.00289 4.00289 2
        -0.00289796 -0.00289796 2.99997
        1.00005 -0.0026236 2.99995
        2 -0.00261238 2.99995
        2.99995 -0.0026236 2.99995
        4.0029 -0.00289796 2.99997
        -0.0026236 1.00005 2.99995
        1.00007 1.00007 2.99993
        2 1.00007 2.99993
        2.99993 1.00007 2.99993
        4.00262 1.00005 2.99995
        -0.00261238 2 2.99995
        1.00007 2 2.99993
        2 2 2.99993
        2.99993 2 2.99993
        4.00261 2 2.99995
        -0.0026236 2.99995 2.99995
        1.00007 2.99993 2.99993
        2 2.99993 2.99993
        2.99993 2.99993 2.99993
        4.00262 2.99995 2.99995
        -0.00289796 4.0029 2.99997
        1.00005 4.00262 2.99995
        2 4.00261 2.99995
        2.99995 4.00262 2.99995
        4.0029 4.0029 2.99997
        -0.00312591 -0.00312591 4.00313
        1.00003 -0.00289796 4.0029
        2 -0.00288949 4.00289
        2.99997 -0.00289796 4.0029
        4.00313 -0.00312591 4.00313
        -0.00289796 1.00003 4.0029
        1.00005 1.00005 4.00262
        2 1.00005 4.00261
        2.99995 1.00005 4.00262
        4.0029 1.00003 4.0029
        -0.00288949 2 4.00289
        1.00005 2 4.00261
        2 2 4.0026
        2.99995 2 4.00261
        4.00289 2 4.00289
        -0.00289796 2.99997 4.0029
        1.00005 2.99995 4.00262
        2 2.99995 4.00261
        2.99995 2.99995 4.00262
        4.0029 2.99997 4.0029
        -0.00312591 4.00313 4.00313
        1.00003 4.0029 4.0029
        2 4.00289 4.00289
        2.99997 4.0029 4.0029
        4.00313 4.00313 4.00313
      </DataArray>
    </Points>
    <Cells>
      <DataArray type="Int32" Name="connectivity" format="ascii"/>
      <DataArray type="Int32" Name="offsets" format="ascii"/>
      <DataArray type="UInt8" Name="types" format="ascii"/>
    </Cells>
  </Piece>
  </UnstructuredGrid>
</VTKFile>
