<VTKFile type="UnstructuredGrid" version="0.1">
  <UnstructuredGrid>
  <Piece NumberOfPoints="125" NumberOfCells="0">
    <PointData Scalars="Radius">
      <DataArray type="Float64" Name="Radius" format="ascii">
        0.5
        0.5
        0.5
        0.5
        0.5
        0.5
        0.5
        0.5
        0.5
        0.5
        0.5
        0.5
        0.5
        0.5
        0.5
        0.5
        0.5
        0.5
        0.5
        0.5
        0.5
        0.5
        0.5
        0.5
        0.5
        0.5
        0.5
        0.5
        0.5
        0.5
        0.5
        0.5
        0.5
        0.5
        0.5
        0.5
        0.5
        0.5
        0.5
        0.5
        0.5
        0.5
        0.5
        0.5
        0.5
        0.5
        0.5
        0.5
        0.5
        0.5
        0.5
        0.5
        0.5
        0.5
        0.5
        0.5
        0.5
        0.5
        0.5
        0.5
        0.5
        0.5
        0.5
        0.5
        0.5
        0.5
        0.5
        0.5
        0.5
        0.5
        0.5
        0.5
        0.5
        0.5
        0.5
        0.5
        0.5
        0.5
        0.5
        0.5
        0.5
        0.5
        0.5
        0.5
        0.5
        0.5
        0.5
        0.5
        0.5
        0.5
        0.5
        0.5
        0.5
        0.5
        0.5
        0.5
        0.5
        0.5
        0.5
        0.5
        0.5
        0.5
        0.5
        0.5
        0.5
        0.5
        0.5
        0.5
        0.5
        0.5
        0.5
        0.5
        0.5
        0.5
        0.5
        0.5
        0.5
        0.5
        0.5
        0.5
        0.5
        0.5
        0.5
        0.5
        0.5
      </DataArray>
    </PointData>
    <Points>
      <DataArray type="Float64" NumberOfComponents="3" format="ascii">
        -1.06545 -1.06545 -1.06545
        0.149042 -0.660282 -0.660282
        2.00084 -0.575449 -0.575449
        3.76866 -0.624361 -0.624361
        5.21566 -1.21566 -1.21566
        -0.660282 0.149042 -0.660282
        0.551947 0.551947 -0.197191
        2.00019 0.653677 -0.1497
        3.44905 0.550945 -0.197507
        4.62436 0.231338 -0.624362
        -0.575449 2.00084 -0.575449
        0.653677 2.00019 -0.1497
        2 2 -0.00221069
        3.34642 2 -0.149725
        4.57541 2 -0.575407
        -0.624361 3.76866 -0.624361
        0.550945 3.44905 -0.197507
        2 3.34642 -0.149725
        3.44905 3.44905 -0.197507
        4.62436 3.76866 -0.624362
        -1.21566 5.21566 -1.21566
        0.231338 4.62436 -0.624362
        2 4.57541 -0.575407
        3.76866 4.62436 -0.624362
        5.21566 5.21566 -1.21566
        -0.660282 -0.660282 0.149042
        0.551947 -0.197191 0.551947
        2.00019 -0.1497 0.653677
        3.44905 -0.197507 0.550945
        4.62436 -0.624362 0.231338
        -0.197191 0.551947 0.551947
        0.846687 0.846687 0.846687
        2.00005 0.887158 0.887158
        3.15349 0.846522 0.846522
        4.19751 0.550945 0.550945
        -0.1497 2.00019 0.653677
        0.887158 2.00005 0.887158
        2 2 1.01796
        3.11285 2 0.887152
        4.14973 2 0.653578
        -0.197507 3.44905 0.550945
        0.846522 3.15349 0.846522
        2 3.11285 0.887152
        3.15348 3.15348 0.846524
        4.19751 3.44905 0.550945
        -0.624362 4.62436 0.231338
        0.550945 4.19751 0.550945
        2 4.14973 0.653578
        3.44905 4.19751 0.550945
        4.62436 4.62436 0.231338
        -0.575449 -0.575449 2.00084
        0.653677 -0.1497 2.00019
        2 -0.00221069 2
        3.34642 -0.149725 2
        4.57541 -0.575407 2
        -0.1497 0.653677 2.00019
        0.887158 0.887158 2.00005
        2 1.01796 2
        3.11285 0.887152 2
        4.14973 0.653578 2
        -0.00221069 2 2
        1.01796 2 2
        2 2 2
        2.98204 2 2
        4.00221 2 2
        -0.149725 3.34642 2
        0.887152 3.11285 2
        2 2.98204 2
        3.11285 3.11285 2
        4.14973 3.34642 2
        -0.575407 4.57541 2
        0.653578 4.14973 2
        2 4.00221 2
        3.34642 4.14973 2
        4.57541 4.57541 2
        -0.624361 -0.624361 3.76866
        0.550945 -0.197507 3.44905
        2 -0.149725 3.34642
        3.44905 -0.197507 3.44905
        4.62436 -0.624362 3.76866
        -0.197507 0.550945 3.44905
        0.846522 0.846522 3.15349
        2 0.887152 3.11285
        3.15348 0.846524 3.15348
        4.19751 0.550945 3.44905
        -0.149725 2 3.34642
        0.887152 2 3.11285
        2 2 2.98204
        3.11285 2 3.11285
        4.14973 2 3.34642
        -0.197507 3.44905 3.44905
        0.846524 3.15348 3.15348
        2 3.11285 3.11285
        3.15348 3.15348 3.15348
        4.19751 3.44905 3.44905
        -0.624362 4.62436 3.76866
        0.550945 4.19751 3.44905
        2 4.14973 3.34642
        3.44905 4.19751 3.44905
        4.62436 4.62436 3.76866
        -1.21566 -1.21566 5.21566
        0.231338 -0.624362 4.62436
        2 -0.575407 4.57541
        3.76866 -0.624362 4.62436
        5.21566 -1.21566 5.21566
        -0.624362 0.231338 4.62436
        0.550945 0.550945 4.19751
        2 0.653578 4.14973
        3.44905 0.550945 4.19751
        4.62436 0.231338 4.62436
        -0.575407 2 4.57541
        0.653578 2 4.14973
        2 2 4.00221
        3.34642 2 4.14973
        4.57541 2 4.57541
        -0.624362 3.76866 4.62436
        0.550945 3.44905 4.19751
        2 3.34642 4.14973
        3.44905 3.44905 4.19751
        4.62436 3.76866 4.62436
        -1.21566 5.21566 5.21566
        0.231338 4.62436 4.62436
        2 4.57541 4.57541
        3.76866 4.62436 4.62436
        5.21566 5.21566 5.21566
      </DataArray>
    </Points>
    <Cells>
      <DataArray type="Int32" Name="connectivity" format="ascii"/>
      <DataArray type="Int32" Name="offsets" format="ascii"/>
      <DataArray type="UInt8" Name="types" format="ascii"/>
    </Cells>
  </Piece>
  </UnstructuredGrid>
</VTKFile>
