<VTKFile type="UnstructuredGrid" version="0.1">
  <UnstructuredGrid>
  <Piece NumberOfPoints="125" NumberOfCells="0">
    <PointData Scalars="Radius">
      <DataArray type="Float64" Name="Radius" format="ascii">
        0.5
        0.5
        0.5
        0.5
        0.5
        0.5
        0.5
        0.5
        0.5
        0.5
        0.5
        0.5
        0.5
        0.5
        0.5
        0.5
        0.5
        0.5
        0.5
        0.5
        0.5
        0.5
        0.5
        0.5
        0.5
        0.5
        0.5
        0.5
        0.5
        0.5
        0.5
        0.5
        0.5
        0.5
        0.5
        0.5
        0.5
        0.5
        0.5
        0.5
        0.5
        0.5
        0.5
        0.5
        0.5
        0.5
        0.5
        0.5
        0.5
        0.5
        0.5
        0.5
        0.5
        0.5
        0.5
        0.5
        0.5
        0.5
        0.5
        0.5
        0.5
        0.5
        0.5
        0.5
        0.5
        0.5
        0.5
        0.5
        0.5
        0.5
        0.5
        0.5
        0.5
        0.5
        0.5
        0.5
        0.5
        0.5
        0.5
        0.5
        0.5
        0.5
        0.5
        0.5
        0.5
        0.5
        0.5
        0.5
        0.5
        0.5
        0.5
        0.5
        0.5
        0.5
        0.5
        0.5
        0.5
        0.5
        0.5
        0.5
        0.5
        0.5
        0.5
        0.5
        0.5
        0.5
        0.5
        0.5
        0.5
        0.5
        0.5
        0.5
        0.5
        0.5
        0.5
        0.5
        0.5
        0.5
        0.5
        0.5
        0.5
        0.5
        0.5
        0.5
        0.5
      </DataArray>
    </PointData>
    <Points>
      <DataArray type="Float64" NumberOfComponents="3" format="ascii">
        -1.0598 -1.0598 -1.0598
        0.141247 -0.650499 -0.650499
        2.0011 -0.555796 -0.555796
        3.76609 -0.608188 -0.608188
        5.23103 -1.23103 -1.23103
        -0.650499 0.141247 -0.650499
        0.55699 0.55699 -0.191559
        2.00024 0.663877 -0.129005
        3.44458 0.555408 -0.192333
        4.60819 0.233907 -0.608188
        -0.555796 2.0011 -0.555796
        0.663877 2.00024 -0.129005
        2 2 -0.0175895
        3.33625 2 -0.129037
        4.55574 2 -0.555744
        -0.608188 3.76609 -0.608188
        0.555408 3.44458 -0.192333
        2 3.33625 -0.129037
        3.44459 3.44459 -0.192333
        4.60819 3.76609 -0.608188
        -1.23103 5.23103 -1.23103
        0.233907 4.60819 -0.608188
        2 4.55574 -0.555744
        3.76609 4.60819 -0.608188
        5.23103 5.23103 -1.23103
        -0.650499 -0.650499 0.141247
        0.55699 -0.191559 0.55699
        2.00024 -0.129005 0.663877
        3.44458 -0.192333 0.555408
        4.60819 -0.608188 0.233907
        -0.191559 0.55699 0.55699
        0.830902 0.830902 0.830902
        2.00006 0.877548 0.877548
        3.16936 0.830656 0.830656
        4.19233 0.555408 0.555408
        -0.129005 2.00024 0.663877
        0.877548 2.00006 0.877548
        2 2 1.02827
        3.12246 2 0.877537
        4.12904 2 0.663748
        -0.192333 3.44458 0.555408
        0.830656 3.16936 0.830656
        2 3.12246 0.877537
        3.16934 3.16934 0.830658
        4.19233 3.44459 0.555409
        -0.608188 4.60819 0.233907
        0.555408 4.19233 0.555408
        2 4.12904 0.663748
        3.44459 4.19233 0.555409
        4.60819 4.60819 0.233907
        -0.555796 -0.555796 2.0011
        0.663877 -0.129005 2.00024
        2 -0.0175895 2
        3.33625 -0.129037 2
        4.55574 -0.555744 2
        -0.129005 0.663877 2.00024
        0.877548 0.877548 2.00006
        2 1.02827 2
        3.12246 0.877537 2
        4.12904 0.663748 2
        -0.0175895 2 2
        1.02827 2 2
        2 2 2
        2.97173 2 2
        4.01759 2 2
        -0.129037 3.33625 2
        0.877537 3.12246 2
        2 2.97173 2
        3.12246 3.12246 2
        4.12904 3.33625 2
        -0.555744 4.55574 2
        0.663748 4.12904 2
        2 4.01759 2
        3.33625 4.12904 2
        4.55574 4.55574 2
        -0.608188 -0.608188 3.76609
        0.555408 -0.192333 3.44458
        2 -0.129037 3.33625
        3.44459 -0.192333 3.44459
        4.60819 -0.608188 3.76609
        -0.192333 0.555408 3.44458
        0.830656 0.830656 3.16936
        2 0.877537 3.12246
        3.16934 0.830658 3.16934
        4.19233 0.555409 3.44459
        -0.129037 2 3.33625
        0.877537 2 3.12246
        2 2 2.97173
        3.12246 2 3.12246
        4.12904 2 3.33625
        -0.192333 3.44459 3.44459
        0.830658 3.16934 3.16934
        2 3.12246 3.12246
        3.16934 3.16934 3.16934
        4.19233 3.44459 3.44459
        -0.608188 4.60819 3.76609
        0.555409 4.19233 3.44459
        2 4.12904 3.33625
        3.44459 4.19233 3.44459
        4.60819 4.60819 3.76609
        -1.23103 -1.23103 5.23103
        0.233907 -0.608188 4.60819
        2 -0.555744 4.55574
        3.76609 -0.608188 4.60819
        5.23103 -1.23103 5.23103
        -0.608188 0.233907 4.60819
        0.555408 0.555408 4.19233
        2 0.663748 4.12904
        3.44459 0.555409 4.19233
        4.60819 0.233907 4.60819
        -0.555744 2 4.55574
        0.663748 2 4.12904
        2 2 4.01759
        3.33625 2 4.12904
        4.55574 2 4.55574
        -0.608188 3.76609 4.60819
        0.555409 3.44459 4.19233
        2 3.33625 4.12904
        3.44459 3.44459 4.19233
        4.60819 3.76609 4.60819
        -1.23103 5.23103 5.23103
        0.233907 4.60819 4.60819
        2 4.55574 4.55574
        3.76609 4.60819 4.60819
        5.23103 5.23103 5.23103
      </DataArray>
    </Points>
    <Cells>
      <DataArray type="Int32" Name="connectivity" format="ascii"/>
      <DataArray type="Int32" Name="offsets" format="ascii"/>
      <DataArray type="UInt8" Name="types" format="ascii"/>
    </Cells>
  </Piece>
  </UnstructuredGrid>
</VTKFile>
