<VTKFile type="UnstructuredGrid" version="0.1">
  <UnstructuredGrid>
  <Piece NumberOfPoints="125" NumberOfCells="0">
    <PointData Scalars="Radius">
      <DataArray type="Float64" Name="Radius" format="ascii">
        0.5
        0.5
        0.5
        0.5
        0.5
        0.5
        0.5
        0.5
        0.5
        0.5
        0.5
        0.5
        0.5
        0.5
        0.5
        0.5
        0.5
        0.5
        0.5
        0.5
        0.5
        0.5
        0.5
        0.5
        0.5
        0.5
        0.5
        0.5
        0.5
        0.5
        0.5
        0.5
        0.5
        0.5
        0.5
        0.5
        0.5
        0.5
        0.5
        0.5
        0.5
        0.5
        0.5
        0.5
        0.5
        0.5
        0.5
        0.5
        0.5
        0.5
        0.5
        0.5
        0.5
        0.5
        0.5
        0.5
        0.5
        0.5
        0.5
        0.5
        0.5
        0.5
        0.5
        0.5
        0.5
        0.5
        0.5
        0.5
        0.5
        0.5
        0.5
        0.5
        0.5
        0.5
        0.5
        0.5
        0.5
        0.5
        0.5
        0.5
        0.5
        0.5
        0.5
        0.5
        0.5
        0.5
        0.5
        0.5
        0.5
        0.5
        0.5
        0.5
        0.5
        0.5
        0.5
        0.5
        0.5
        0.5
        0.5
        0.5
        0.5
        0.5
        0.5
        0.5
        0.5
        0.5
        0.5
        0.5
        0.5
        0.5
        0.5
        0.5
        0.5
        0.5
        0.5
        0.5
        0.5
        0.5
        0.5
        0.5
        0.5
        0.5
        0.5
        0.5
        0.5
      </DataArray>
    </PointData>
    <Points>
      <DataArray type="Float64" NumberOfComponents="3" format="ascii">
        -1.00545 -1.00545 -1.00545
        0.123114 -0.636344 -0.636344
        2 -0.694351 -0.694351
        3.87678 -0.636308 -0.636308
        5.00563 -1.00563 -1.00563
        -0.636344 0.123114 -0.636344
        0.51745 0.51745 -0.306239
        2 0.471714 -0.299956
        3.48255 0.517453 -0.306238
        4.63631 0.123223 -0.636308
        -0.694351 2 -0.694351
        0.471714 2 -0.299956
        2 2 -0.288361
        3.52829 2 -0.299956
        4.69435 2 -0.694351
        -0.636308 3.87678 -0.636308
        0.517453 3.48255 -0.306238
        2 3.52829 -0.299956
        3.48255 3.48255 -0.306238
        4.63631 3.87678 -0.636308
        -1.00563 5.00563 -1.00563
        0.123223 4.63631 -0.636308
        2 4.69435 -0.694351
        3.87678 4.63631 -0.636308
        5.00563 5.00563 -1.00563
        -0.636344 -0.636344 0.123114
        0.51745 -0.306239 0.51745
        2 -0.299956 0.471714
        3.48255 -0.306238 0.517453
        4.63631 -0.636308 0.123223
        -0.306239 0.51745 0.51745
        0.899218 0.899218 0.899218
        2 0.876148 0.876148
        3.10078 0.899218 0.899218
        4.30624 0.517453 0.517453
        -0.299956 2 0.471714
        0.876148 2 0.876148
        2 2 0.869612
        3.12385 2 0.876148
        4.29996 2 0.471714
        -0.306238 3.48255 0.517453
        0.899218 3.10078 0.899218
        2 3.12385 0.876148
        3.10078 3.10078 0.899218
        4.30624 3.48255 0.517453
        -0.636308 4.63631 0.123223
        0.517453 4.30624 0.517453
        2 4.29996 0.471714
        3.48255 4.30624 0.517453
        4.63631 4.63631 0.123223
        -0.694351 -0.694351 2
        0.471714 -0.299956 2
        2 -0.288361 2
        3.52829 -0.299956 2
        4.69435 -0.694351 2
        -0.299956 0.471714 2
        0.876148 0.876148 2
        2 0.869612 2
        3.12385 0.876148 2
        4.29996 0.471714 2
        -0.288361 2 2
        0.869612 2 2
        2 2 2
        3.13039 2 2
        4.28836 2 2
        -0.299956 3.52829 2
        0.876148 3.12385 2
        2 3.13039 2
        3.12385 3.12385 2
        4.29996 3.52829 2
        -0.694351 4.69435 2
        0.471714 4.29996 2
        2 4.28836 2
        3.52829 4.29996 2
        4.69435 4.69435 2
        -0.636308 -0.636308 3.87678
        0.517453 -0.306238 3.48255
        2 -0.299956 3.52829
        3.48255 -0.306238 3.48255
        4.63631 -0.636308 3.87678
        -0.306238 0.517453 3.48255
        0.899218 0.899218 3.10078
        2 0.876148 3.12385
        3.10078 0.899218 3.10078
        4.30624 0.517453 3.48255
        -0.299956 2 3.52829
        0.876148 2 3.12385
        2 2 3.13039
        3.12385 2 3.12385
        4.29996 2 3.52829
        -0.306238 3.48255 3.48255
        0.899218 3.10078 3.10078
        2 3.12385 3.12385
        3.10078 3.10078 3.10078
        4.30624 3.48255 3.48255
        -0.636308 4.63631 3.87678
        0.517453 4.30624 3.48255
        2 4.29996 3.52829
        3.48255 4.30624 3.48255
        4.63631 4.63631 3.87678
        -1.00563 -1.00563 5.00563
        0.123223 -0.636308 4.63631
        2 -0.694351 4.69435
        3.87678 -0.636308 4.63631
        5.00563 -1.00563 5.00563
        -0.636308 0.123223 4.63631
        0.517453 0.517453 4.30624
        2 0.471714 4.29996
        3.48255 0.517453 4.30624
        4.63631 0.123223 4.63631
        -0.694351 2 4.69435
        0.471714 2 4.29996
        2 2 4.28836
        3.52829 2 4.29996
        4.69435 2 4.69435
        -0.636308 3.87678 4.63631
        0.517453 3.48255 4.30624
        2 3.52829 4.29996
        3.48255 3.48255 4.30624
        4.63631 3.87678 4.63631
        -1.00563 5.00563 5.00563
        0.123223 4.63631 4.63631
        2 4.69435 4.69435
        3.87678 4.63631 4.63631
        5.00563 5.00563 5.00563
      </DataArray>
    </Points>
    <Cells>
      <DataArray type="Int32" Name="connectivity" format="ascii"/>
      <DataArray type="Int32" Name="offsets" format="ascii"/>
      <DataArray type="UInt8" Name="types" format="ascii"/>
    </Cells>
  </Piece>
  </UnstructuredGrid>
</VTKFile>
