<VTKFile type="UnstructuredGrid" version="0.1">
  <UnstructuredGrid>
  <Piece NumberOfPoints="125" NumberOfCells="0">
    <PointData Scalars="Radius">
      <DataArray type="Float64" Name="Radius" format="ascii">
        0.5
        0.5
        0.5
        0.5
        0.5
        0.5
        0.5
        0.5
        0.5
        0.5
        0.5
        0.5
        0.5
        0.5
        0.5
        0.5
        0.5
        0.5
        0.5
        0.5
        0.5
        0.5
        0.5
        0.5
        0.5
        0.5
        0.5
        0.5
        0.5
        0.5
        0.5
        0.5
        0.5
        0.5
        0.5
        0.5
        0.5
        0.5
        0.5
        0.5
        0.5
        0.5
        0.5
        0.5
        0.5
        0.5
        0.5
        0.5
        0.5
        0.5
        0.5
        0.5
        0.5
        0.5
        0.5
        0.5
        0.5
        0.5
        0.5
        0.5
        0.5
        0.5
        0.5
        0.5
        0.5
        0.5
        0.5
        0.5
        0.5
        0.5
        0.5
        0.5
        0.5
        0.5
        0.5
        0.5
        0.5
        0.5
        0.5
        0.5
        0.5
        0.5
        0.5
        0.5
        0.5
        0.5
        0.5
        0.5
        0.5
        0.5
        0.5
        0.5
        0.5
        0.5
        0.5
        0.5
        0.5
        0.5
        0.5
        0.5
        0.5
        0.5
        0.5
        0.5
        0.5
        0.5
        0.5
        0.5
        0.5
        0.5
        0.5
        0.5
        0.5
        0.5
        0.5
        0.5
        0.5
        0.5
        0.5
        0.5
        0.5
        0.5
        0.5
        0.5
        0.5
      </DataArray>
    </PointData>
    <Points>
      <DataArray type="Float64" NumberOfComponents="3" format="ascii">
        -0.63246 -0.63246 -0.63246
        0.473654 -0.541004 -0.541004
        2 -0.55037 -0.55037
        3.52635 -0.541004 -0.541004
        4.63246 -0.63246 -0.63246
        -0.541004 0.473654 -0.541004
        0.567488 0.567488 -0.423648
        2 0.572547 -0.433855
        3.43251 0.567488 -0.423648
        4.541 0.473654 -0.541004
        -0.55037 2 -0.55037
        0.572547 2 -0.433855
        2 2 -0.44217
        3.42745 2 -0.433855
        4.55037 2 -0.55037
        -0.541004 3.52635 -0.541004
        0.567488 3.43251 -0.423648
        2 3.42745 -0.433855
        3.43251 3.43251 -0.423648
        4.541 3.52635 -0.541004
        -0.63246 4.63246 -0.63246
        0.473654 4.541 -0.541004
        2 4.55037 -0.55037
        3.52635 4.541 -0.541004
        4.63246 4.63246 -0.63246
        -0.541004 -0.541004 0.473654
        0.567488 -0.423648 0.567488
        2 -0.433855 0.572547
        3.43251 -0.423648 0.567488
        4.541 -0.541004 0.473654
        -0.423648 0.567488 0.567488
        0.691109 0.691109 0.691109
        2 0.695255 0.695255
        3.30889 0.691109 0.691109
        4.42365 0.567488 0.567488
        -0.433855 2 0.572547
        0.695255 2 0.695255
        2 2 0.699923
        3.30474 2 0.695255
        4.43386 2 0.572547
        -0.423648 3.43251 0.567488
        0.691109 3.30889 0.691109
        2 3.30474 0.695255
        3.30889 3.30889 0.691109
        4.42365 3.43251 0.567488
        -0.541004 4.541 0.473654
        0.567488 4.42365 0.567488
        2 4.43386 0.572547
        3.43251 4.42365 0.567488
        4.541 4.541 0.473654
        -0.55037 -0.55037 2
        0.572547 -0.433855 2
        2 -0.44217 2
        3.42745 -0.433855 2
        4.55037 -0.55037 2
        -0.433855 0.572547 2
        0.695255 0.695255 2
        2 0.699923 2
        3.30474 0.695255 2
        4.43386 0.572547 2
        -0.44217 2 2
        0.699923 2 2
        2 2 2
        3.30008 2 2
        4.44217 2 2
        -0.433855 3.42745 2
        0.695255 3.30474 2
        2 3.30008 2
        3.30474 3.30474 2
        4.43386 3.42745 2
        -0.55037 4.55037 2
        0.572547 4.43386 2
        2 4.44217 2
        3.42745 4.43386 2
        4.55037 4.55037 2
        -0.541004 -0.541004 3.52635
        0.567488 -0.423648 3.43251
        2 -0.433855 3.42745
        3.43251 -0.423648 3.43251
        4.541 -0.541004 3.52635
        -0.423648 0.567488 3.43251
        0.691109 0.691109 3.30889
        2 0.695255 3.30474
        3.30889 0.691109 3.30889
        4.42365 0.567488 3.43251
        -0.433855 2 3.42745
        0.695255 2 3.30474
        2 2 3.30008
        3.30474 2 3.30474
        4.43386 2 3.42745
        -0.423648 3.43251 3.43251
        0.691109 3.30889 3.30889
        2 3.30474 3.30474
        3.30889 3.30889 3.30889
        4.42365 3.43251 3.43251
        -0.541004 4.541 3.52635
        0.567488 4.42365 3.43251
        2 4.43386 3.42745
        3.43251 4.42365 3.43251
        4.541 4.541 3.52635
        -0.63246 -0.63246 4.63246
        0.473654 -0.541004 4.541
        2 -0.55037 4.55037
        3.52635 -0.541004 4.541
        4.63246 -0.63246 4.63246
        -0.541004 0.473654 4.541
        0.567488 0.567488 4.42365
        2 0.572547 4.43386
        3.43251 0.567488 4.42365
        4.541 0.473654 4.541
        -0.55037 2 4.55037
        0.572547 2 4.43386
        2 2 4.44217
        3.42745 2 4.43386
        4.55037 2 4.55037
        -0.541004 3.52635 4.541
        0.567488 3.43251 4.42365
        2 3.42745 4.43386
        3.43251 3.43251 4.42365
        4.541 3.52635 4.541
        -0.63246 4.63246 4.63246
        0.473654 4.541 4.541
        2 4.55037 4.55037
        3.52635 4.541 4.541
        4.63246 4.63246 4.63246
      </DataArray>
    </Points>
    <Cells>
      <DataArray type="Int32" Name="connectivity" format="ascii"/>
      <DataArray type="Int32" Name="offsets" format="ascii"/>
      <DataArray type="UInt8" Name="types" format="ascii"/>
    </Cells>
  </Piece>
  </UnstructuredGrid>
</VTKFile>
