<VTKFile type="UnstructuredGrid" version="0.1">
  <UnstructuredGrid>
  <Piece NumberOfPoints="125" NumberOfCells="0">
    <PointData Scalars="Radius">
      <DataArray type="Float64" Name="Radius" format="ascii">
        0.5
        0.5
        0.5
        0.5
        0.5
        0.5
        0.5
        0.5
        0.5
        0.5
        0.5
        0.5
        0.5
        0.5
        0.5
        0.5
        0.5
        0.5
        0.5
        0.5
        0.5
        0.5
        0.5
        0.5
        0.5
        0.5
        0.5
        0.5
        0.5
        0.5
        0.5
        0.5
        0.5
        0.5
        0.5
        0.5
        0.5
        0.5
        0.5
        0.5
        0.5
        0.5
        0.5
        0.5
        0.5
        0.5
        0.5
        0.5
        0.5
        0.5
        0.5
        0.5
        0.5
        0.5
        0.5
        0.5
        0.5
        0.5
        0.5
        0.5
        0.5
        0.5
        0.5
        0.5
        0.5
        0.5
        0.5
        0.5
        0.5
        0.5
        0.5
        0.5
        0.5
        0.5
        0.5
        0.5
        0.5
        0.5
        0.5
        0.5
        0.5
        0.5
        0.5
        0.5
        0.5
        0.5
        0.5
        0.5
        0.5
        0.5
        0.5
        0.5
        0.5
        0.5
        0.5
        0.5
        0.5
        0.5
        0.5
        0.5
        0.5
        0.5
        0.5
        0.5
        0.5
        0.5
        0.5
        0.5
        0.5
        0.5
        0.5
        0.5
        0.5
        0.5
        0.5
        0.5
        0.5
        0.5
        0.5
        0.5
        0.5
        0.5
        0.5
        0.5
        0.5
      </DataArray>
    </PointData>
    <Points>
      <DataArray type="Float64" NumberOfComponents="3" format="ascii">
        -1.03484 -1.03484 -1.03484
        0.142323 -0.660235 -0.660235
        2 -0.693804 -0.693804
        3.8539 -0.658905 -0.658905
        5.04149 -1.04149 -1.04149
        -0.660235 0.142323 -0.660235
        0.531847 0.531847 -0.30773
        2 0.50714 -0.299
        3.46807 0.531935 -0.307689
        4.65891 0.146097 -0.658905
        -0.693804 2 -0.693804
        0.50714 2 -0.299
        2 2 -0.241225
        3.49286 2 -0.299
        4.6938 2 -0.693804
        -0.658905 3.8539 -0.658905
        0.531935 3.46807 -0.307689
        2 3.49286 -0.299
        3.46807 3.46807 -0.307689
        4.65891 3.8539 -0.658905
        -1.04149 5.04149 -1.04149
        0.146097 4.65891 -0.658905
        2 4.6938 -0.693804
        3.8539 4.65891 -0.658905
        5.04149 5.04149 -1.04149
        -0.660235 -0.660235 0.142323
        0.531847 -0.30773 0.531847
        2 -0.299 0.50714
        3.46807 -0.307689 0.531935
        4.65891 -0.658905 0.146097
        -0.30773 0.531847 0.531847
        0.928361 0.928361 0.928361
        2 0.915841 0.915841
        3.07164 0.928361 0.928361
        4.30769 0.531935 0.531935
        -0.299 2 0.50714
        0.915841 2 0.915841
        2 2 0.920876
        3.08416 2 0.915841
        4.299 2 0.50714
        -0.307689 3.46807 0.531935
        0.928361 3.07164 0.928361
        2 3.08416 0.915841
        3.07164 3.07164 0.928361
        4.30769 3.46807 0.531935
        -0.658905 4.65891 0.146097
        0.531935 4.30769 0.531935
        2 4.299 0.50714
        3.46807 4.30769 0.531935
        4.65891 4.65891 0.146097
        -0.693804 -0.693804 2
        0.50714 -0.299 2
        2 -0.241225 2
        3.49286 -0.299 2
        4.6938 -0.693804 2
        -0.299 0.50714 2
        0.915841 0.915841 2
        2 0.920876 2
        3.08416 0.915841 2
        4.299 0.50714 2
        -0.241225 2 2
        0.920876 2 2
        2 2 2
        3.07912 2 2
        4.24123 2 2
        -0.299 3.49286 2
        0.915841 3.08416 2
        2 3.07912 2
        3.08416 3.08416 2
        4.299 3.49286 2
        -0.693804 4.6938 2
        0.50714 4.299 2
        2 4.24123 2
        3.49286 4.299 2
        4.6938 4.6938 2
        -0.658905 -0.658905 3.8539
        0.531935 -0.307689 3.46807
        2 -0.299 3.49286
        3.46807 -0.307689 3.46807
        4.65891 -0.658905 3.8539
        -0.307689 0.531935 3.46807
        0.928361 0.928361 3.07164
        2 0.915841 3.08416
        3.07164 0.928361 3.07164
        4.30769 0.531935 3.46807
        -0.299 2 3.49286
        0.915841 2 3.08416
        2 2 3.07912
        3.08416 2 3.08416
        4.299 2 3.49286
        -0.307689 3.46807 3.46807
        0.928361 3.07164 3.07164
        2 3.08416 3.08416
        3.07164 3.07164 3.07164
        4.30769 3.46807 3.46807
        -0.658905 4.65891 3.8539
        0.531935 4.30769 3.46807
        2 4.299 3.49286
        3.46807 4.30769 3.46807
        4.65891 4.65891 3.8539
        -1.04149 -1.04149 5.04149
        0.146097 -0.658905 4.65891
        2 -0.693804 4.6938
        3.8539 -0.658905 4.65891
        5.04149 -1.04149 5.04149
        -0.658905 0.146097 4.65891
        0.531935 0.531935 4.30769
        2 0.50714 4.299
        3.46807 0.531935 4.30769
        4.65891 0.146097 4.65891
        -0.693804 2 4.6938
        0.50714 2 4.299
        2 2 4.24123
        3.49286 2 4.299
        4.6938 2 4.6938
        -0.658905 3.8539 4.65891
        0.531935 3.46807 4.30769
        2 3.49286 4.299
        3.46807 3.46807 4.30769
        4.65891 3.8539 4.65891
        -1.04149 5.04149 5.04149
        0.146097 4.65891 4.65891
        2 4.6938 4.6938
        3.8539 4.65891 4.65891
        5.04149 5.04149 5.04149
      </DataArray>
    </Points>
    <Cells>
      <DataArray type="Int32" Name="connectivity" format="ascii"/>
      <DataArray type="Int32" Name="offsets" format="ascii"/>
      <DataArray type="UInt8" Name="types" format="ascii"/>
    </Cells>
  </Piece>
  </UnstructuredGrid>
</VTKFile>
