<VTKFile type="UnstructuredGrid" version="0.1">
  <UnstructuredGrid>
  <Piece NumberOfPoints="125" NumberOfCells="0">
    <PointData Scalars="Radius">
      <DataArray type="Float64" Name="Radius" format="ascii">
        0.5
        0.5
        0.5
        0.5
        0.5
        0.5
        0.5
        0.5
        0.5
        0.5
        0.5
        0.5
        0.5
        0.5
        0.5
        0.5
        0.5
        0.5
        0.5
        0.5
        0.5
        0.5
        0.5
        0.5
        0.5
        0.5
        0.5
        0.5
        0.5
        0.5
        0.5
        0.5
        0.5
        0.5
        0.5
        0.5
        0.5
        0.5
        0.5
        0.5
        0.5
        0.5
        0.5
        0.5
        0.5
        0.5
        0.5
        0.5
        0.5
        0.5
        0.5
        0.5
        0.5
        0.5
        0.5
        0.5
        0.5
        0.5
        0.5
        0.5
        0.5
        0.5
        0.5
        0.5
        0.5
        0.5
        0.5
        0.5
        0.5
        0.5
        0.5
        0.5
        0.5
        0.5
        0.5
        0.5
        0.5
        0.5
        0.5
        0.5
        0.5
        0.5
        0.5
        0.5
        0.5
        0.5
        0.5
        0.5
        0.5
        0.5
        0.5
        0.5
        0.5
        0.5
        0.5
        0.5
        0.5
        0.5
        0.5
        0.5
        0.5
        0.5
        0.5
        0.5
        0.5
        0.5
        0.5
        0.5
        0.5
        0.5
        0.5
        0.5
        0.5
        0.5
        0.5
        0.5
        0.5
        0.5
        0.5
        0.5
        0.5
        0.5
        0.5
        0.5
        0.5
      </DataArray>
    </PointData>
    <Points>
      <DataArray type="Float64" NumberOfComponents="3" format="ascii">
        -1.07382 -1.07382 -1.07382
        0.170101 -0.686302 -0.686302
        2.00016 -0.64706 -0.64706
        3.79121 -0.670863 -0.670863
        5.14394 -1.14394 -1.14394
        -0.686302 0.170101 -0.686302
        0.546282 0.546282 -0.25685
        2.00005 0.599623 -0.243418
        3.45341 0.546592 -0.256581
        4.67086 0.208794 -0.670863
        -0.64706 2.00016 -0.64706
        0.599623 2.00005 -0.243418
        2 2 -0.0493084
        3.4004 2 -0.243422
        4.64705 2 -0.64705
        -0.670863 3.79121 -0.670863
        0.546592 3.45341 -0.256581
        2 3.4004 -0.243422
        3.45341 3.45341 -0.256581
        4.67086 3.79121 -0.670863
        -1.14394 5.14394 -1.14394
        0.208794 4.67086 -0.670863
        2 4.64705 -0.64705
        3.79121 4.67086 -0.670863
        5.14394 5.14394 -1.14394
        -0.686302 -0.686302 0.170101
        0.546282 -0.25685 0.546282
        2.00005 -0.243418 0.599623
        3.45341 -0.256581 0.546592
        4.67086 -0.670863 0.208794
        -0.25685 0.546282 0.546282
        0.919954 0.919954 0.919954
        2.00001 0.948294 0.948294
        3.08009 0.919914 0.919914
        4.25658 0.546592 0.546592
        -0.243418 2.00005 0.599623
        0.948294 2.00001 0.948294
        2 2 0.989267
        3.05171 2 0.948292
        4.24342 2 0.599602
        -0.256581 3.45341 0.546592
        0.919914 3.08009 0.919914
        2 3.05171 0.948292
        3.08009 3.08009 0.919914
        4.25658 3.45341 0.546592
        -0.670863 4.67086 0.208794
        0.546592 4.25658 0.546592
        2 4.24342 0.599602
        3.45341 4.25658 0.546592
        4.67086 4.67086 0.208794
        -0.64706 -0.64706 2.00016
        0.599623 -0.243418 2.00005
        2 -0.0493084 2
        3.4004 -0.243422 2
        4.64705 -0.64705 2
        -0.243418 0.599623 2.00005
        0.948294 0.948294 2.00001
        2 0.989267 2
        3.05171 0.948292 2
        4.24342 0.599602 2
        -0.0493084 2 2
        0.989267 2 2
        2 2 2
        3.01073 2 2
        4.04931 2 2
        -0.243422 3.4004 2
        0.948292 3.05171 2
        2 3.01073 2
        3.05171 3.05171 2
        4.24342 3.4004 2
        -0.64705 4.64705 2
        0.599602 4.24342 2
        2 4.04931 2
        3.4004 4.24342 2
        4.64705 4.64705 2
        -0.670863 -0.670863 3.79121
        0.546592 -0.256581 3.45341
        2 -0.243422 3.4004
        3.45341 -0.256581 3.45341
        4.67086 -0.670863 3.79121
        -0.256581 0.546592 3.45341
        0.919914 0.919914 3.08009
        2 0.948292 3.05171
        3.08009 0.919914 3.08009
        4.25658 0.546592 3.45341
        -0.243422 2 3.4004
        0.948292 2 3.05171
        2 2 3.01073
        3.05171 2 3.05171
        4.24342 2 3.4004
        -0.256581 3.45341 3.45341
        0.919914 3.08009 3.08009
        2 3.05171 3.05171
        3.08009 3.08009 3.08009
        4.25658 3.45341 3.45341
        -0.670863 4.67086 3.79121
        0.546592 4.25658 3.45341
        2 4.24342 3.4004
        3.45341 4.25658 3.45341
        4.67086 4.67086 3.79121
        -1.14394 -1.14394 5.14394
        0.208794 -0.670863 4.67086
        2 -0.64705 4.64705
        3.79121 -0.670863 4.67086
        5.14394 -1.14394 5.14394
        -0.670863 0.208794 4.67086
        0.546592 0.546592 4.25658
        2 0.599602 4.24342
        3.45341 0.546592 4.25658
        4.67086 0.208794 4.67086
        -0.64705 2 4.64705
        0.599602 2 4.24342
        2 2 4.04931
        3.4004 2 4.24342
        4.64705 2 4.64705
        -0.670863 3.79121 4.67086
        0.546592 3.45341 4.25658
        2 3.4004 4.24342
        3.45341 3.45341 4.25658
        4.67086 3.79121 4.67086
        -1.14394 5.14394 5.14394
        0.208794 4.67086 4.67086
        2 4.64705 4.64705
        3.79121 4.67086 4.67086
        5.14394 5.14394 5.14394
      </DataArray>
    </Points>
    <Cells>
      <DataArray type="Int32" Name="connectivity" format="ascii"/>
      <DataArray type="Int32" Name="offsets" format="ascii"/>
      <DataArray type="UInt8" Name="types" format="ascii"/>
    </Cells>
  </Piece>
  </UnstructuredGrid>
</VTKFile>
