<VTKFile type="UnstructuredGrid" version="0.1">
  <UnstructuredGrid>
  <Piece NumberOfPoints="125" NumberOfCells="0">
    <PointData Scalars="Radius">
      <DataArray type="Float64" Name="Radius" format="ascii">
        0.5
        0.5
        0.5
        0.5
        0.5
        0.5
        0.5
        0.5
        0.5
        0.5
        0.5
        0.5
        0.5
        0.5
        0.5
        0.5
        0.5
        0.5
        0.5
        0.5
        0.5
        0.5
        0.5
        0.5
        0.5
        0.5
        0.5
        0.5
        0.5
        0.5
        0.5
        0.5
        0.5
        0.5
        0.5
        0.5
        0.5
        0.5
        0.5
        0.5
        0.5
        0.5
        0.5
        0.5
        0.5
        0.5
        0.5
        0.5
        0.5
        0.5
        0.5
        0.5
        0.5
        0.5
        0.5
        0.5
        0.5
        0.5
        0.5
        0.5
        0.5
        0.5
        0.5
        0.5
        0.5
        0.5
        0.5
        0.5
        0.5
        0.5
        0.5
        0.5
        0.5
        0.5
        0.5
        0.5
        0.5
        0.5
        0.5
        0.5
        0.5
        0.5
        0.5
        0.5
        0.5
        0.5
        0.5
        0.5
        0.5
        0.5
        0.5
        0.5
        0.5
        0.5
        0.5
        0.5
        0.5
        0.5
        0.5
        0.5
        0.5
        0.5
        0.5
        0.5
        0.5
        0.5
        0.5
        0.5
        0.5
        0.5
        0.5
        0.5
        0.5
        0.5
        0.5
        0.5
        0.5
        0.5
        0.5
        0.5
        0.5
        0.5
        0.5
        0.5
        0.5
      </DataArray>
    </PointData>
    <Points>
      <DataArray type="Float64" NumberOfComponents="3" format="ascii">
        -1.06844 -1.06844 -1.06844
        0.153834 -0.666099 -0.666099
        2.00069 -0.587685 -0.587685
        3.77078 -0.633907 -0.633907
        5.20542 -1.20542 -1.20542
        -0.666099 0.153834 -0.666099
        0.549625 0.549625 -0.203415
        2.00016 0.646481 -0.164668
        3.45105 0.548947 -0.203516
        4.63391 0.229218 -0.633907
        -0.587685 2.00069 -0.587685
        0.646481 2.00016 -0.164668
        2 2 0.00522035
        3.3536 2 -0.164688
        4.58765 2 -0.587649
        -0.633907 3.77078 -0.633907
        0.548947 3.45105 -0.203516
        2 3.3536 -0.164688
        3.45105 3.45105 -0.203516
        4.63391 3.77078 -0.633907
        -1.20542 5.20542 -1.20542
        0.229218 4.63391 -0.633907
        2 4.58765 -0.587649
        3.77078 4.63391 -0.633907
        5.20542 5.20542 -1.20542
        -0.666099 -0.666099 0.153834
        0.549625 -0.203415 0.549625
        2.00016 -0.164668 0.646481
        3.45105 -0.203516 0.548947
        4.63391 -0.633907 0.229218
        -0.203415 0.549625 0.549625
        0.857954 0.857954 0.857954
        2.00005 0.896098 0.896098
        3.14219 0.857819 0.857819
        4.20352 0.548947 0.548947
        -0.164668 2.00016 0.646481
        0.896098 2.00005 0.896098
        2 2 1.00751
        3.10391 2 0.896094
        4.16469 2 0.646399
        -0.203516 3.45105 0.548947
        0.857819 3.14219 0.857819
        2 3.10391 0.896094
        3.14218 3.14218 0.857821
        4.20352 3.45105 0.548947
        -0.633907 4.63391 0.229218
        0.548947 4.20352 0.548947
        2 4.16469 0.646399
        3.45105 4.20352 0.548947
        4.63391 4.63391 0.229218
        -0.587685 -0.587685 2.00069
        0.646481 -0.164668 2.00016
        2 0.00522035 2
        3.3536 -0.164688 2
        4.58765 -0.587649 2
        -0.164668 0.646481 2.00016
        0.896098 0.896098 2.00005
        2 1.00751 2
        3.10391 0.896094 2
        4.16469 0.646399 2
        0.00522035 2 2
        1.00751 2 2
        2 2 2
        2.99249 2 2
        3.99478 2 2
        -0.164688 3.3536 2
        0.896094 3.10391 2
        2 2.99249 2
        3.10391 3.10391 2
        4.16469 3.3536 2
        -0.587649 4.58765 2
        0.646399 4.16469 2
        2 3.99478 2
        3.3536 4.16469 2
        4.58765 4.58765 2
        -0.633907 -0.633907 3.77078
        0.548947 -0.203516 3.45105
        2 -0.164688 3.3536
        3.45105 -0.203516 3.45105
        4.63391 -0.633907 3.77078
        -0.203516 0.548947 3.45105
        0.857819 0.857819 3.14219
        2 0.896094 3.10391
        3.14218 0.857821 3.14218
        4.20352 0.548947 3.45105
        -0.164688 2 3.3536
        0.896094 2 3.10391
        2 2 2.99249
        3.10391 2 3.10391
        4.16469 2 3.3536
        -0.203516 3.45105 3.45105
        0.857821 3.14218 3.14218
        2 3.10391 3.10391
        3.14218 3.14218 3.14218
        4.20352 3.45105 3.45105
        -0.633907 4.63391 3.77078
        0.548947 4.20352 3.45105
        2 4.16469 3.3536
        3.45105 4.20352 3.45105
        4.63391 4.63391 3.77078
        -1.20542 -1.20542 5.20542
        0.229218 -0.633907 4.63391
        2 -0.587649 4.58765
        3.77078 -0.633907 4.63391
        5.20542 -1.20542 5.20542
        -0.633907 0.229218 4.63391
        0.548947 0.548947 4.20352
        2 0.646399 4.16469
        3.45105 0.548947 4.20352
        4.63391 0.229218 4.63391
        -0.587649 2 4.58765
        0.646399 2 4.16469
        2 2 3.99478
        3.3536 2 4.16469
        4.58765 2 4.58765
        -0.633907 3.77078 4.63391
        0.548947 3.45105 4.20352
        2 3.3536 4.16469
        3.45105 3.45105 4.20352
        4.63391 3.77078 4.63391
        -1.20542 5.20542 5.20542
        0.229218 4.63391 4.63391
        2 4.58765 4.58765
        3.77078 4.63391 4.63391
        5.20542 5.20542 5.20542
      </DataArray>
    </Points>
    <Cells>
      <DataArray type="Int32" Name="connectivity" format="ascii"/>
      <DataArray type="Int32" Name="offsets" format="ascii"/>
      <DataArray type="UInt8" Name="types" format="ascii"/>
    </Cells>
  </Piece>
  </UnstructuredGrid>
</VTKFile>
