<VTKFile type="UnstructuredGrid" version="0.1">
  <UnstructuredGrid>
  <Piece NumberOfPoints="125" NumberOfCells="0">
    <PointData Scalars="Radius">
      <DataArray type="Float64" Name="Radius" format="ascii">
        0.5
        0.5
        0.5
        0.5
        0.5
        0.5
        0.5
        0.5
        0.5
        0.5
        0.5
        0.5
        0.5
        0.5
        0.5
        0.5
        0.5
        0.5
        0.5
        0.5
        0.5
        0.5
        0.5
        0.5
        0.5
        0.5
        0.5
        0.5
        0.5
        0.5
        0.5
        0.5
        0.5
        0.5
        0.5
        0.5
        0.5
        0.5
        0.5
        0.5
        0.5
        0.5
        0.5
        0.5
        0.5
        0.5
        0.5
        0.5
        0.5
        0.5
        0.5
        0.5
        0.5
        0.5
        0.5
        0.5
        0.5
        0.5
        0.5
        0.5
        0.5
        0.5
        0.5
        0.5
        0.5
        0.5
        0.5
        0.5
        0.5
        0.5
        0.5
        0.5
        0.5
        0.5
        0.5
        0.5
        0.5
        0.5
        0.5
        0.5
        0.5
        0.5
        0.5
        0.5
        0.5
        0.5
        0.5
        0.5
        0.5
        0.5
        0.5
        0.5
        0.5
        0.5
        0.5
        0.5
        0.5
        0.5
        0.5
        0.5
        0.5
        0.5
        0.5
        0.5
        0.5
        0.5
        0.5
        0.5
        0.5
        0.5
        0.5
        0.5
        0.5
        0.5
        0.5
        0.5
        0.5
        0.5
        0.5
        0.5
        0.5
        0.5
        0.5
        0.5
        0.5
      </DataArray>
    </PointData>
    <Points>
      <DataArray type="Float64" NumberOfComponents="3" format="ascii">
        -1.01914 -1.01914 -1.01914
        0.130856 -0.647019 -0.647019
        2 -0.695152 -0.695152
        3.86807 -0.646658 -0.646658
        5.021 -1.021 -1.021
        -0.647019 0.130856 -0.647019
        0.524304 0.524304 -0.308092
        2 0.486769 -0.30032
        3.47567 0.52433 -0.30808
        4.64666 0.13193 -0.646658
        -0.695152 2 -0.695152
        0.486769 2 -0.30032
        2 2 -0.269478
        3.51323 2 -0.30032
        4.69515 2 -0.695152
        -0.646658 3.86807 -0.646658
        0.52433 3.47567 -0.30808
        2 3.51323 -0.30032
        3.47567 3.47567 -0.30808
        4.64666 3.86807 -0.646658
        -1.021 5.021 -1.021
        0.13193 4.64666 -0.646658
        2 4.69515 -0.695152
        3.86807 4.64666 -0.646658
        5.021 5.021 -1.021
        -0.647019 -0.647019 0.130856
        0.524304 -0.308092 0.524304
        2 -0.30032 0.486769
        3.47567 -0.30808 0.52433
        4.64666 -0.646658 0.13193
        -0.308092 0.524304 0.524304
        0.913045 0.913045 0.913045
        2 0.893881 0.893881
        3.08696 0.913045 0.913045
        4.30808 0.52433 0.52433
        -0.30032 2 0.486769
        0.893881 2 0.893881
        2 2 0.891593
        3.10612 2 0.893881
        4.30032 2 0.486769
        -0.30808 3.47567 0.52433
        0.913045 3.08696 0.913045
        2 3.10612 0.893881
        3.08696 3.08696 0.913045
        4.30808 3.47567 0.52433
        -0.646658 4.64666 0.13193
        0.52433 4.30808 0.52433
        2 4.30032 0.486769
        3.47567 4.30808 0.52433
        4.64666 4.64666 0.13193
        -0.695152 -0.695152 2
        0.486769 -0.30032 2
        2 -0.269478 2
        3.51323 -0.30032 2
        4.69515 -0.695152 2
        -0.30032 0.486769 2
        0.893881 0.893881 2
        2 0.891593 2
        3.10612 0.893881 2
        4.30032 0.486769 2
        -0.269478 2 2
        0.891593 2 2
        2 2 2
        3.10841 2 2
        4.26948 2 2
        -0.30032 3.51323 2
        0.893881 3.10612 2
        2 3.10841 2
        3.10612 3.10612 2
        4.30032 3.51323 2
        -0.695152 4.69515 2
        0.486769 4.30032 2
        2 4.26948 2
        3.51323 4.30032 2
        4.69515 4.69515 2
        -0.646658 -0.646658 3.86807
        0.52433 -0.30808 3.47567
        2 -0.30032 3.51323
        3.47567 -0.30808 3.47567
        4.64666 -0.646658 3.86807
        -0.30808 0.52433 3.47567
        0.913045 0.913045 3.08696
        2 0.893881 3.10612
        3.08696 0.913045 3.08696
        4.30808 0.52433 3.47567
        -0.30032 2 3.51323
        0.893881 2 3.10612
        2 2 3.10841
        3.10612 2 3.10612
        4.30032 2 3.51323
        -0.30808 3.47567 3.47567
        0.913045 3.08696 3.08696
        2 3.10612 3.10612
        3.08696 3.08696 3.08696
        4.30808 3.47567 3.47567
        -0.646658 4.64666 3.86807
        0.52433 4.30808 3.47567
        2 4.30032 3.51323
        3.47567 4.30808 3.47567
        4.64666 4.64666 3.86807
        -1.021 -1.021 5.021
        0.13193 -0.646658 4.64666
        2 -0.695152 4.69515
        3.86807 -0.646658 4.64666
        5.021 -1.021 5.021
        -0.646658 0.13193 4.64666
        0.52433 0.52433 4.30808
        2 0.486769 4.30032
        3.47567 0.52433 4.30808
        4.64666 0.13193 4.64666
        -0.695152 2 4.69515
        0.486769 2 4.30032
        2 2 4.26948
        3.51323 2 4.30032
        4.69515 2 4.69515
        -0.646658 3.86807 4.64666
        0.52433 3.47567 4.30808
        2 3.51323 4.30032
        3.47567 3.47567 4.30808
        4.64666 3.86807 4.64666
        -1.021 5.021 5.021
        0.13193 4.64666 4.64666
        2 4.69515 4.69515
        3.86807 4.64666 4.64666
        5.021 5.021 5.021
      </DataArray>
    </Points>
    <Cells>
      <DataArray type="Int32" Name="connectivity" format="ascii"/>
      <DataArray type="Int32" Name="offsets" format="ascii"/>
      <DataArray type="UInt8" Name="types" format="ascii"/>
    </Cells>
  </Piece>
  </UnstructuredGrid>
</VTKFile>
