<VTKFile type="UnstructuredGrid" version="0.1">
  <UnstructuredGrid>
  <Piece NumberOfPoints="125" NumberOfCells="0">
    <PointData Scalars="Radius">
      <DataArray type="Float64" Name="Radius" format="ascii">
        0.5
        0.5
        0.5
        0.5
        0.5
        0.5
        0.5
        0.5
        0.5
        0.5
        0.5
        0.5
        0.5
        0.5
        0.5
        0.5
        0.5
        0.5
        0.5
        0.5
        0.5
        0.5
        0.5
        0.5
        0.5
        0.5
        0.5
        0.5
        0.5
        0.5
        0.5
        0.5
        0.5
        0.5
        0.5
        0.5
        0.5
        0.5
        0.5
        0.5
        0.5
        0.5
        0.5
        0.5
        0.5
        0.5
        0.5
        0.5
        0.5
        0.5
        0.5
        0.5
        0.5
        0.5
        0.5
        0.5
        0.5
        0.5
        0.5
        0.5
        0.5
        0.5
        0.5
        0.5
        0.5
        0.5
        0.5
        0.5
        0.5
        0.5
        0.5
        0.5
        0.5
        0.5
        0.5
        0.5
        0.5
        0.5
        0.5
        0.5
        0.5
        0.5
        0.5
        0.5
        0.5
        0.5
        0.5
        0.5
        0.5
        0.5
        0.5
        0.5
        0.5
        0.5
        0.5
        0.5
        0.5
        0.5
        0.5
        0.5
        0.5
        0.5
        0.5
        0.5
        0.5
        0.5
        0.5
        0.5
        0.5
        0.5
        0.5
        0.5
        0.5
        0.5
        0.5
        0.5
        0.5
        0.5
        0.5
        0.5
        0.5
        0.5
        0.5
        0.5
        0.5
      </DataArray>
    </PointData>
    <Points>
      <DataArray type="Float64" NumberOfComponents="3" format="ascii">
        -0.700162 -0.700162 -0.700162
        0.355394 -0.561189 -0.561189
        2 -0.58122 -0.58122
        3.64461 -0.561189 -0.561189
        4.70016 -0.700162 -0.700162
        -0.561189 0.355394 -0.561189
        0.495756 0.495756 -0.378786
        2 0.498682 -0.404801
        3.50424 0.495756 -0.378786
        4.56119 0.355394 -0.561189
        -0.58122 2 -0.58122
        0.498682 2 -0.404801
        2 2 -0.423691
        3.50132 2 -0.404801
        4.58122 2 -0.58122
        -0.561189 3.64461 -0.561189
        0.495756 3.50424 -0.378786
        2 3.50132 -0.404801
        3.50424 3.50424 -0.378786
        4.56119 3.64461 -0.561189
        -0.700162 4.70016 -0.700162
        0.355394 4.56119 -0.561189
        2 4.58122 -0.58122
        3.64461 4.56119 -0.561189
        4.70016 4.70016 -0.700162
        -0.561189 -0.561189 0.355394
        0.495756 -0.378786 0.495756
        2 -0.404801 0.498682
        3.50424 -0.378786 0.495756
        4.56119 -0.561189 0.355394
        -0.378786 0.495756 0.495756
        0.681802 0.681802 0.681802
        2 0.683166 0.683166
        3.3182 0.681802 0.681802
        4.37879 0.495756 0.495756
        -0.404801 2 0.498682
        0.683166 2 0.683166
        2 2 0.688077
        3.31683 2 0.683166
        4.4048 2 0.498682
        -0.378786 3.50424 0.495756
        0.681802 3.3182 0.681802
        2 3.31683 0.683166
        3.3182 3.3182 0.681802
        4.37879 3.50424 0.495756
        -0.561189 4.56119 0.355394
        0.495756 4.37879 0.495756
        2 4.4048 0.498682
        3.50424 4.37879 0.495756
        4.56119 4.56119 0.355394
        -0.58122 -0.58122 2
        0.498682 -0.404801 2
        2 -0.423691 2
        3.50132 -0.404801 2
        4.58122 -0.58122 2
        -0.404801 0.498682 2
        0.683166 0.683166 2
        2 0.688077 2
        3.31683 0.683166 2
        4.4048 0.498682 2
        -0.423691 2 2
        0.688077 2 2
        2 2 2
        3.31192 2 2
        4.42369 2 2
        -0.404801 3.50132 2
        0.683166 3.31683 2
        2 3.31192 2
        3.31683 3.31683 2
        4.4048 3.50132 2
        -0.58122 4.58122 2
        0.498682 4.4048 2
        2 4.42369 2
        3.50132 4.4048 2
        4.58122 4.58122 2
        -0.561189 -0.561189 3.64461
        0.495756 -0.378786 3.50424
        2 -0.404801 3.50132
        3.50424 -0.378786 3.50424
        4.56119 -0.561189 3.64461
        -0.378786 0.495756 3.50424
        0.681802 0.681802 3.3182
        2 0.683166 3.31683
        3.3182 0.681802 3.3182
        4.37879 0.495756 3.50424
        -0.404801 2 3.50132
        0.683166 2 3.31683
        2 2 3.31192
        3.31683 2 3.31683
        4.4048 2 3.50132
        -0.378786 3.50424 3.50424
        0.681802 3.3182 3.3182
        2 3.31683 3.31683
        3.3182 3.3182 3.3182
        4.37879 3.50424 3.50424
        -0.561189 4.56119 3.64461
        0.495756 4.37879 3.50424
        2 4.4048 3.50132
        3.50424 4.37879 3.50424
        4.56119 4.56119 3.64461
        -0.700162 -0.700162 4.70016
        0.355394 -0.561189 4.56119
        2 -0.58122 4.58122
        3.64461 -0.561189 4.56119
        4.70016 -0.700162 4.70016
        -0.561189 0.355394 4.56119
        0.495756 0.495756 4.37879
        2 0.498682 4.4048
        3.50424 0.495756 4.37879
        4.56119 0.355394 4.56119
        -0.58122 2 4.58122
        0.498682 2 4.4048
        2 2 4.42369
        3.50132 2 4.4048
        4.58122 2 4.58122
        -0.561189 3.64461 4.56119
        0.495756 3.50424 4.37879
        2 3.50132 4.4048
        3.50424 3.50424 4.37879
        4.56119 3.64461 4.56119
        -0.700162 4.70016 4.70016
        0.355394 4.56119 4.56119
        2 4.58122 4.58122
        3.64461 4.56119 4.56119
        4.70016 4.70016 4.70016
      </DataArray>
    </Points>
    <Cells>
      <DataArray type="Int32" Name="connectivity" format="ascii"/>
      <DataArray type="Int32" Name="offsets" format="ascii"/>
      <DataArray type="UInt8" Name="types" format="ascii"/>
    </Cells>
  </Piece>
  </UnstructuredGrid>
</VTKFile>
