<VTKFile type="UnstructuredGrid" version="0.1">
  <UnstructuredGrid>
  <Piece NumberOfPoints="125" NumberOfCells="0">
    <PointData Scalars="Radius">
      <DataArray type="Float64" Name="Radius" format="ascii">
        0.5
        0.5
        0.5
        0.5
        0.5
        0.5
        0.5
        0.5
        0.5
        0.5
        0.5
        0.5
        0.5
        0.5
        0.5
        0.5
        0.5
        0.5
        0.5
        0.5
        0.5
        0.5
        0.5
        0.5
        0.5
        0.5
        0.5
        0.5
        0.5
        0.5
        0.5
        0.5
        0.5
        0.5
        0.5
        0.5
        0.5
        0.5
        0.5
        0.5
        0.5
        0.5
        0.5
        0.5
        0.5
        0.5
        0.5
        0.5
        0.5
        0.5
        0.5
        0.5
        0.5
        0.5
        0.5
        0.5
        0.5
        0.5
        0.5
        0.5
        0.5
        0.5
        0.5
        0.5
        0.5
        0.5
        0.5
        0.5
        0.5
        0.5
        0.5
        0.5
        0.5
        0.5
        0.5
        0.5
        0.5
        0.5
        0.5
        0.5
        0.5
        0.5
        0.5
        0.5
        0.5
        0.5
        0.5
        0.5
        0.5
        0.5
        0.5
        0.5
        0.5
        0.5
        0.5
        0.5
        0.5
        0.5
        0.5
        0.5
        0.5
        0.5
        0.5
        0.5
        0.5
        0.5
        0.5
        0.5
        0.5
        0.5
        0.5
        0.5
        0.5
        0.5
        0.5
        0.5
        0.5
        0.5
        0.5
        0.5
        0.5
        0.5
        0.5
        0.5
        0.5
      </DataArray>
    </PointData>
    <Points>
      <DataArray type="Float64" NumberOfComponents="3" format="ascii">
        -0.481455 -0.481455 -0.481455
        0.68802 -0.432117 -0.432117
        2 -0.432138 -0.432138
        3.31198 -0.432117 -0.432117
        4.48145 -0.481455 -0.481455
        -0.432117 0.68802 -0.432117
        0.723383 0.723383 -0.373513
        2 0.725025 -0.373842
        3.27662 0.723383 -0.373513
        4.43212 0.68802 -0.432117
        -0.432138 2 -0.432138
        0.725025 2 -0.373842
        2 2 -0.374253
        3.27497 2 -0.373842
        4.43214 2 -0.432138
        -0.432117 3.31198 -0.432117
        0.723383 3.27662 -0.373513
        2 3.27497 -0.373842
        3.27662 3.27662 -0.373513
        4.43212 3.31198 -0.432117
        -0.481455 4.48145 -0.481455
        0.68802 4.43212 -0.432117
        2 4.43214 -0.432138
        3.31198 4.43212 -0.432117
        4.48145 4.48145 -0.481455
        -0.432117 -0.432117 0.68802
        0.723383 -0.373513 0.723383
        2 -0.373842 0.725025
        3.27662 -0.373513 0.723383
        4.43212 -0.432117 0.68802
        -0.373513 0.723383 0.723383
        0.770715 0.770715 0.770715
        2 0.772488 0.772488
        3.22928 0.770715 0.770715
        4.37351 0.723383 0.723383
        -0.373842 2 0.725025
        0.772488 2 0.772488
        2 2 0.774202
        3.22751 2 0.772488
        4.37384 2 0.725025
        -0.373513 3.27662 0.723383
        0.770715 3.22928 0.770715
        2 3.22751 0.772488
        3.22928 3.22928 0.770715
        4.37351 3.27662 0.723383
        -0.432117 4.43212 0.68802
        0.723383 4.37351 0.723383
        2 4.37384 0.725025
        3.27662 4.37351 0.723383
        4.43212 4.43212 0.68802
        -0.432138 -0.432138 2
        0.725025 -0.373842 2
        2 -0.374253 2
        3.27497 -0.373842 2
        4.43214 -0.432138 2
        -0.373842 0.725025 2
        0.772488 0.772488 2
        2 0.774202 2
        3.22751 0.772488 2
        4.37384 0.725025 2
        -0.374253 2 2
        0.774202 2 2
        2 2 2
        3.2258 2 2
        4.37425 2 2
        -0.373842 3.27497 2
        0.772488 3.22751 2
        2 3.2258 2
        3.22751 3.22751 2
        4.37384 3.27497 2
        -0.432138 4.43214 2
        0.725025 4.37384 2
        2 4.37425 2
        3.27497 4.37384 2
        4.43214 4.43214 2
        -0.432117 -0.432117 3.31198
        0.723383 -0.373513 3.27662
        2 -0.373842 3.27497
        3.27662 -0.373513 3.27662
        4.43212 -0.432117 3.31198
        -0.373513 0.723383 3.27662
        0.770715 0.770715 3.22928
        2 0.772488 3.22751
        3.22928 0.770715 3.22928
        4.37351 0.723383 3.27662
        -0.373842 2 3.27497
        0.772488 2 3.22751
        2 2 3.2258
        3.22751 2 3.22751
        4.37384 2 3.27497
        -0.373513 3.27662 3.27662
        0.770715 3.22928 3.22928
        2 3.22751 3.22751
        3.22928 3.22928 3.22928
        4.37351 3.27662 3.27662
        -0.432117 4.43212 3.31198
        0.723383 4.37351 3.27662
        2 4.37384 3.27497
        3.27662 4.37351 3.27662
        4.43212 4.43212 3.31198
        -0.481455 -0.481455 4.48145
        0.68802 -0.432117 4.43212
        2 -0.432138 4.43214
        3.31198 -0.432117 4.43212
        4.48145 -0.481455 4.48145
        -0.432117 0.68802 4.43212
        0.723383 0.723383 4.37351
        2 0.725025 4.37384
        3.27662 0.723383 4.37351
        4.43212 0.68802 4.43212
        -0.432138 2 4.43214
        0.725025 2 4.37384
        2 2 4.37425
        3.27497 2 4.37384
        4.43214 2 4.43214
        -0.432117 3.31198 4.43212
        0.723383 3.27662 4.37351
        2 3.27497 4.37384
        3.27662 3.27662 4.37351
        4.43212 3.31198 4.43212
        -0.481455 4.48145 4.48145
        0.68802 4.43212 4.43212
        2 4.43214 4.43214
        3.31198 4.43212 4.43212
        4.48145 4.48145 4.48145
      </DataArray>
    </Points>
    <Cells>
      <DataArray type="Int32" Name="connectivity" format="ascii"/>
      <DataArray type="Int32" Name="offsets" format="ascii"/>
      <DataArray type="UInt8" Name="types" format="ascii"/>
    </Cells>
  </Piece>
  </UnstructuredGrid>
</VTKFile>
