<VTKFile type="UnstructuredGrid" version="0.1">
  <UnstructuredGrid>
  <Piece NumberOfPoints="125" NumberOfCells="0">
    <PointData Scalars="Radius">
      <DataArray type="Float64" Name="Radius" format="ascii">
        0.5
        0.5
        0.5
        0.5
        0.5
        0.5
        0.5
        0.5
        0.5
        0.5
        0.5
        0.5
        0.5
        0.5
        0.5
        0.5
        0.5
        0.5
        0.5
        0.5
        0.5
        0.5
        0.5
        0.5
        0.5
        0.5
        0.5
        0.5
        0.5
        0.5
        0.5
        0.5
        0.5
        0.5
        0.5
        0.5
        0.5
        0.5
        0.5
        0.5
        0.5
        0.5
        0.5
        0.5
        0.5
        0.5
        0.5
        0.5
        0.5
        0.5
        0.5
        0.5
        0.5
        0.5
        0.5
        0.5
        0.5
        0.5
        0.5
        0.5
        0.5
        0.5
        0.5
        0.5
        0.5
        0.5
        0.5
        0.5
        0.5
        0.5
        0.5
        0.5
        0.5
        0.5
        0.5
        0.5
        0.5
        0.5
        0.5
        0.5
        0.5
        0.5
        0.5
        0.5
        0.5
        0.5
        0.5
        0.5
        0.5
        0.5
        0.5
        0.5
        0.5
        0.5
        0.5
        0.5
        0.5
        0.5
        0.5
        0.5
        0.5
        0.5
        0.5
        0.5
        0.5
        0.5
        0.5
        0.5
        0.5
        0.5
        0.5
        0.5
        0.5
        0.5
        0.5
        0.5
        0.5
        0.5
        0.5
        0.5
        0.5
        0.5
        0.5
        0.5
        0.5
      </DataArray>
    </PointData>
    <Points>
      <DataArray type="Float64" NumberOfComponents="3" format="ascii">
        -0.1421 -0.1421 -0.1421
        0.94445 -0.130683 -0.130683
        2 -0.12993 -0.12993
        3.05555 -0.130683 -0.130683
        4.1421 -0.1421 -0.1421
        -0.130683 0.94445 -0.130683
        0.948476 0.948476 -0.116891
        2 0.948639 -0.115993
        3.05152 0.948476 -0.116891
        4.13068 0.94445 -0.130683
        -0.12993 2 -0.12993
        0.948639 2 -0.115993
        2 2 -0.11509
        3.05136 2 -0.115993
        4.12993 2 -0.12993
        -0.130683 3.05555 -0.130683
        0.948476 3.05152 -0.116891
        2 3.05136 -0.115993
        3.05152 3.05152 -0.116891
        4.13068 3.05555 -0.130683
        -0.1421 4.1421 -0.1421
        0.94445 4.13068 -0.130683
        2 4.12993 -0.12993
        3.05555 4.13068 -0.130683
        4.1421 4.1421 -0.1421
        -0.130683 -0.130683 0.94445
        0.948476 -0.116891 0.948476
        2 -0.115993 0.948639
        3.05152 -0.116891 0.948476
        4.13068 -0.130683 0.94445
        -0.116891 0.948476 0.948476
        0.953534 0.953534 0.953534
        2 0.953763 0.953763
        3.04647 0.953534 0.953534
        4.11689 0.948476 0.948476
        -0.115993 2 0.948639
        0.953763 2 0.953763
        2 2 0.95399
        3.04624 2 0.953763
        4.11599 2 0.948639
        -0.116891 3.05152 0.948476
        0.953534 3.04647 0.953534
        2 3.04624 0.953763
        3.04647 3.04647 0.953534
        4.11689 3.05152 0.948476
        -0.130683 4.13068 0.94445
        0.948476 4.11689 0.948476
        2 4.11599 0.948639
        3.05152 4.11689 0.948476
        4.13068 4.13068 0.94445
        -0.12993 -0.12993 2
        0.948639 -0.115993 2
        2 -0.11509 2
        3.05136 -0.115993 2
        4.12993 -0.12993 2
        -0.115993 0.948639 2
        0.953763 0.953763 2
        2 0.95399 2
        3.04624 0.953763 2
        4.11599 0.948639 2
        -0.11509 2 2
        0.95399 2 2
        2 2 2
        3.04601 2 2
        4.11509 2 2
        -0.115993 3.05136 2
        0.953763 3.04624 2
        2 3.04601 2
        3.04624 3.04624 2
        4.11599 3.05136 2
        -0.12993 4.12993 2
        0.948639 4.11599 2
        2 4.11509 2
        3.05136 4.11599 2
        4.12993 4.12993 2
        -0.130683 -0.130683 3.05555
        0.948476 -0.116891 3.05152
        2 -0.115993 3.05136
        3.05152 -0.116891 3.05152
        4.13068 -0.130683 3.05555
        -0.116891 0.948476 3.05152
        0.953534 0.953534 3.04647
        2 0.953763 3.04624
        3.04647 0.953534 3.04647
        4.11689 0.948476 3.05152
        -0.115993 2 3.05136
        0.953763 2 3.04624
        2 2 3.04601
        3.04624 2 3.04624
        4.11599 2 3.05136
        -0.116891 3.05152 3.05152
        0.953534 3.04647 3.04647
        2 3.04624 3.04624
        3.04647 3.04647 3.04647
        4.11689 3.05152 3.05152
        -0.130683 4.13068 3.05555
        0.948476 4.11689 3.05152
        2 4.11599 3.05136
        3.05152 4.11689 3.05152
        4.13068 4.13068 3.05555
        -0.1421 -0.1421 4.1421
        0.94445 -0.130683 4.13068
        2 -0.12993 4.12993
        3.05555 -0.130683 4.13068
        4.1421 -0.1421 4.1421
        -0.130683 0.94445 4.13068
        0.948476 0.948476 4.11689
        2 0.948639 4.11599
        3.05152 0.948476 4.11689
        4.13068 0.94445 4.13068
        -0.12993 2 4.12993
        0.948639 2 4.11599
        2 2 4.11509
        3.05136 2 4.11599
        4.12993 2 4.12993
        -0.130683 3.05555 4.13068
        0.948476 3.05152 4.11689
        2 3.05136 4.11599
        3.05152 3.05152 4.11689
        4.13068 3.05555 4.13068
        -0.1421 4.1421 4.1421
        0.94445 4.13068 4.13068
        2 4.12993 4.12993
        3.05555 4.13068 4.13068
        4.1421 4.1421 4.1421
      </DataArray>
    </Points>
    <Cells>
      <DataArray type="Int32" Name="connectivity" format="ascii"/>
      <DataArray type="Int32" Name="offsets" format="ascii"/>
      <DataArray type="UInt8" Name="types" format="ascii"/>
    </Cells>
  </Piece>
  </UnstructuredGrid>
</VTKFile>
