<VTKFile type="UnstructuredGrid" version="0.1">
  <UnstructuredGrid>
  <Piece NumberOfPoints="125" NumberOfCells="0">
    <PointData Scalars="Radius">
      <DataArray type="Float64" Name="Radius" format="ascii">
        0.5
        0.5
        0.5
        0.5
        0.5
        0.5
        0.5
        0.5
        0.5
        0.5
        0.5
        0.5
        0.5
        0.5
        0.5
        0.5
        0.5
        0.5
        0.5
        0.5
        0.5
        0.5
        0.5
        0.5
        0.5
        0.5
        0.5
        0.5
        0.5
        0.5
        0.5
        0.5
        0.5
        0.5
        0.5
        0.5
        0.5
        0.5
        0.5
        0.5
        0.5
        0.5
        0.5
        0.5
        0.5
        0.5
        0.5
        0.5
        0.5
        0.5
        0.5
        0.5
        0.5
        0.5
        0.5
        0.5
        0.5
        0.5
        0.5
        0.5
        0.5
        0.5
        0.5
        0.5
        0.5
        0.5
        0.5
        0.5
        0.5
        0.5
        0.5
        0.5
        0.5
        0.5
        0.5
        0.5
        0.5
        0.5
        0.5
        0.5
        0.5
        0.5
        0.5
        0.5
        0.5
        0.5
        0.5
        0.5
        0.5
        0.5
        0.5
        0.5
        0.5
        0.5
        0.5
        0.5
        0.5
        0.5
        0.5
        0.5
        0.5
        0.5
        0.5
        0.5
        0.5
        0.5
        0.5
        0.5
        0.5
        0.5
        0.5
        0.5
        0.5
        0.5
        0.5
        0.5
        0.5
        0.5
        0.5
        0.5
        0.5
        0.5
        0.5
        0.5
        0.5
      </DataArray>
    </PointData>
    <Points>
      <DataArray type="Float64" NumberOfComponents="3" format="ascii">
        -0.927482 -0.927482 -0.927482
        0.143236 -0.604065 -0.604065
        2 -0.673507 -0.673507
        3.85676 -0.604065 -0.604065
        4.92748 -0.927482 -0.927482
        -0.604065 0.143236 -0.604065
        0.478947 0.478947 -0.283824
        2 0.427091 -0.303881
        3.52105 0.478947 -0.283824
        4.60406 0.143236 -0.604065
        -0.673507 2 -0.673507
        0.427091 2 -0.303881
        2 2 -0.349918
        3.57291 2 -0.303881
        4.67351 2 -0.673507
        -0.604065 3.85676 -0.604065
        0.478947 3.52105 -0.283824
        2 3.57291 -0.303881
        3.52105 3.52105 -0.283824
        4.60406 3.85676 -0.604065
        -0.927482 4.92748 -0.927482
        0.143236 4.60406 -0.604065
        2 4.67351 -0.673507
        3.85676 4.60406 -0.604065
        4.92748 4.92748 -0.927482
        -0.604065 -0.604065 0.143236
        0.478947 -0.283824 0.478947
        2 -0.303881 0.427091
        3.52105 -0.283824 0.478947
        4.60406 -0.604065 0.143236
        -0.283824 0.478947 0.478947
        0.82552 0.82552 0.82552
        2 0.795857 0.795857
        3.17448 0.82552 0.82552
        4.28382 0.478947 0.478947
        -0.303881 2 0.427091
        0.795857 2 0.795857
        2 2 0.783622
        3.20414 2 0.795857
        4.30388 2 0.427091
        -0.283824 3.52105 0.478947
        0.82552 3.17448 0.82552
        2 3.20414 0.795857
        3.17448 3.17448 0.82552
        4.28382 3.52105 0.478947
        -0.604065 4.60406 0.143236
        0.478947 4.28382 0.478947
        2 4.30388 0.427091
        3.52105 4.28382 0.478947
        4.60406 4.60406 0.143236
        -0.673507 -0.673507 2
        0.427091 -0.303881 2
        2 -0.349918 2
        3.57291 -0.303881 2
        4.67351 -0.673507 2
        -0.303881 0.427091 2
        0.795857 0.795857 2
        2 0.783622 2
        3.20414 0.795857 2
        4.30388 0.427091 2
        -0.349918 2 2
        0.783622 2 2
        2 2 2
        3.21638 2 2
        4.34992 2 2
        -0.303881 3.57291 2
        0.795857 3.20414 2
        2 3.21638 2
        3.20414 3.20414 2
        4.30388 3.57291 2
        -0.673507 4.67351 2
        0.427091 4.30388 2
        2 4.34992 2
        3.57291 4.30388 2
        4.67351 4.67351 2
        -0.604065 -0.604065 3.85676
        0.478947 -0.283824 3.52105
        2 -0.303881 3.57291
        3.52105 -0.283824 3.52105
        4.60406 -0.604065 3.85676
        -0.283824 0.478947 3.52105
        0.82552 0.82552 3.17448
        2 0.795857 3.20414
        3.17448 0.82552 3.17448
        4.28382 0.478947 3.52105
        -0.303881 2 3.57291
        0.795857 2 3.20414
        2 2 3.21638
        3.20414 2 3.20414
        4.30388 2 3.57291
        -0.283824 3.52105 3.52105
        0.82552 3.17448 3.17448
        2 3.20414 3.20414
        3.17448 3.17448 3.17448
        4.28382 3.52105 3.52105
        -0.604065 4.60406 3.85676
        0.478947 4.28382 3.52105
        2 4.30388 3.57291
        3.52105 4.28382 3.52105
        4.60406 4.60406 3.85676
        -0.927482 -0.927482 4.92748
        0.143236 -0.604065 4.60406
        2 -0.673507 4.67351
        3.85676 -0.604065 4.60406
        4.92748 -0.927482 4.92748
        -0.604065 0.143236 4.60406
        0.478947 0.478947 4.28382
        2 0.427091 4.30388
        3.52105 0.478947 4.28382
        4.60406 0.143236 4.60406
        -0.673507 2 4.67351
        0.427091 2 4.30388
        2 2 4.34992
        3.57291 2 4.30388
        4.67351 2 4.67351
        -0.604065 3.85676 4.60406
        0.478947 3.52105 4.28382
        2 3.57291 4.30388
        3.52105 3.52105 4.28382
        4.60406 3.85676 4.60406
        -0.927482 4.92748 4.92748
        0.143236 4.60406 4.60406
        2 4.67351 4.67351
        3.85676 4.60406 4.60406
        4.92748 4.92748 4.92748
      </DataArray>
    </Points>
    <Cells>
      <DataArray type="Int32" Name="connectivity" format="ascii"/>
      <DataArray type="Int32" Name="offsets" format="ascii"/>
      <DataArray type="UInt8" Name="types" format="ascii"/>
    </Cells>
  </Piece>
  </UnstructuredGrid>
</VTKFile>
