<VTKFile type="UnstructuredGrid" version="0.1">
  <UnstructuredGrid>
  <Piece NumberOfPoints="125" NumberOfCells="0">
    <PointData Scalars="Radius">
      <DataArray type="Float64" Name="Radius" format="ascii">
        0.5
        0.5
        0.5
        0.5
        0.5
        0.5
        0.5
        0.5
        0.5
        0.5
        0.5
        0.5
        0.5
        0.5
        0.5
        0.5
        0.5
        0.5
        0.5
        0.5
        0.5
        0.5
        0.5
        0.5
        0.5
        0.5
        0.5
        0.5
        0.5
        0.5
        0.5
        0.5
        0.5
        0.5
        0.5
        0.5
        0.5
        0.5
        0.5
        0.5
        0.5
        0.5
        0.5
        0.5
        0.5
        0.5
        0.5
        0.5
        0.5
        0.5
        0.5
        0.5
        0.5
        0.5
        0.5
        0.5
        0.5
        0.5
        0.5
        0.5
        0.5
        0.5
        0.5
        0.5
        0.5
        0.5
        0.5
        0.5
        0.5
        0.5
        0.5
        0.5
        0.5
        0.5
        0.5
        0.5
        0.5
        0.5
        0.5
        0.5
        0.5
        0.5
        0.5
        0.5
        0.5
        0.5
        0.5
        0.5
        0.5
        0.5
        0.5
        0.5
        0.5
        0.5
        0.5
        0.5
        0.5
        0.5
        0.5
        0.5
        0.5
        0.5
        0.5
        0.5
        0.5
        0.5
        0.5
        0.5
        0.5
        0.5
        0.5
        0.5
        0.5
        0.5
        0.5
        0.5
        0.5
        0.5
        0.5
        0.5
        0.5
        0.5
        0.5
        0.5
        0.5
      </DataArray>
    </PointData>
    <Points>
      <DataArray type="Float64" NumberOfComponents="3" format="ascii">
        -1.07082 -1.07082 -1.07082
        0.158136 -0.671268 -0.671268
        2.00056 -0.599239 -0.599239
        3.77325 -0.642469 -0.642469
        5.19517 -1.19517 -1.19517
        -0.671268 0.158136 -0.671268
        0.548067 0.548067 -0.211119
        2.00014 0.639066 -0.179659
        3.45234 0.547662 -0.211067
        4.64247 0.226745 -0.642469
        -0.599239 2.00056 -0.599239
        0.639066 2.00014 -0.179659
        2 2 0.00888273
        3.361 2 -0.179675
        4.59921 2 -0.599209
        -0.642469 3.77325 -0.642469
        0.547662 3.45234 -0.211067
        2 3.361 -0.179675
        3.45234 3.45234 -0.211067
        4.64247 3.77326 -0.642469
        -1.19517 5.19517 -1.19517
        0.226745 4.64247 -0.642469
        2 4.59921 -0.599209
        3.77326 4.64247 -0.642469
        5.19517 5.19517 -1.19517
        -0.671268 -0.671268 0.158136
        0.548067 -0.211119 0.548067
        2.00014 -0.179659 0.639066
        3.45234 -0.211067 0.547662
        4.64247 -0.642469 0.226745
        -0.211119 0.548067 0.548067
        0.869354 0.869354 0.869354
        2.00004 0.905905 0.905905
        3.13077 0.869242 0.869242
        4.21107 0.547662 0.547662
        -0.179659 2.00014 0.639066
        0.905905 2.00004 0.905905
        2 2 0.997071
        3.0941 2 0.905902
        4.17968 2 0.638998
        -0.211067 3.45234 0.547662
        0.869242 3.13077 0.869242
        2 3.0941 0.905902
        3.13076 3.13076 0.869243
        4.21107 3.45234 0.547662
        -0.642469 4.64247 0.226745
        0.547662 4.21107 0.547662
        2 4.17968 0.638998
        3.45234 4.21107 0.547662
        4.64247 4.64247 0.226745
        -0.599239 -0.599239 2.00056
        0.639066 -0.179659 2.00014
        2 0.00888273 2
        3.361 -0.179675 2
        4.59921 -0.599209 2
        -0.179659 0.639066 2.00014
        0.905905 0.905905 2.00004
        2 0.997071 2
        3.0941 0.905902 2
        4.17968 0.638998 2
        0.00888273 2 2
        0.997071 2 2
        2 2 2
        3.00293 2 2
        3.99112 2 2
        -0.179675 3.361 2
        0.905902 3.0941 2
        2 3.00293 2
        3.0941 3.0941 2
        4.17968 3.361 2
        -0.599209 4.59921 2
        0.638998 4.17968 2
        2 3.99112 2
        3.361 4.17968 2
        4.59921 4.59921 2
        -0.642469 -0.642469 3.77325
        0.547662 -0.211067 3.45234
        2 -0.179675 3.361
        3.45234 -0.211067 3.45234
        4.64247 -0.642469 3.77326
        -0.211067 0.547662 3.45234
        0.869242 0.869242 3.13077
        2 0.905902 3.0941
        3.13076 0.869243 3.13076
        4.21107 0.547662 3.45234
        -0.179675 2 3.361
        0.905902 2 3.0941
        2 2 3.00293
        3.0941 2 3.0941
        4.17968 2 3.361
        -0.211067 3.45234 3.45234
        0.869243 3.13076 3.13076
        2 3.0941 3.0941
        3.13076 3.13076 3.13076
        4.21107 3.45234 3.45234
        -0.642469 4.64247 3.77326
        0.547662 4.21107 3.45234
        2 4.17968 3.361
        3.45234 4.21107 3.45234
        4.64247 4.64247 3.77326
        -1.19517 -1.19517 5.19517
        0.226745 -0.642469 4.64247
        2 -0.599209 4.59921
        3.77326 -0.642469 4.64247
        5.19517 -1.19517 5.19517
        -0.642469 0.226745 4.64247
        0.547662 0.547662 4.21107
        2 0.638998 4.17968
        3.45234 0.547662 4.21107
        4.64247 0.226745 4.64247
        -0.599209 2 4.59921
        0.638998 2 4.17968
        2 2 3.99112
        3.361 2 4.17968
        4.59921 2 4.59921
        -0.642469 3.77326 4.64247
        0.547662 3.45234 4.21107
        2 3.361 4.17968
        3.45234 3.45234 4.21107
        4.64247 3.77326 4.64247
        -1.19517 5.19517 5.19517
        0.226745 4.64247 4.64247
        2 4.59921 4.59921
        3.77326 4.64247 4.64247
        5.19517 5.19517 5.19517
      </DataArray>
    </Points>
    <Cells>
      <DataArray type="Int32" Name="connectivity" format="ascii"/>
      <DataArray type="Int32" Name="offsets" format="ascii"/>
      <DataArray type="UInt8" Name="types" format="ascii"/>
    </Cells>
  </Piece>
  </UnstructuredGrid>
</VTKFile>
