<VTKFile type="UnstructuredGrid" version="0.1">
  <UnstructuredGrid>
  <Piece NumberOfPoints="125" NumberOfCells="0">
    <PointData Scalars="Radius">
      <DataArray type="Float64" Name="Radius" format="ascii">
        0.5
        0.5
        0.5
        0.5
        0.5
        0.5
        0.5
        0.5
        0.5
        0.5
        0.5
        0.5
        0.5
        0.5
        0.5
        0.5
        0.5
        0.5
        0.5
        0.5
        0.5
        0.5
        0.5
        0.5
        0.5
        0.5
        0.5
        0.5
        0.5
        0.5
        0.5
        0.5
        0.5
        0.5
        0.5
        0.5
        0.5
        0.5
        0.5
        0.5
        0.5
        0.5
        0.5
        0.5
        0.5
        0.5
        0.5
        0.5
        0.5
        0.5
        0.5
        0.5
        0.5
        0.5
        0.5
        0.5
        0.5
        0.5
        0.5
        0.5
        0.5
        0.5
        0.5
        0.5
        0.5
        0.5
        0.5
        0.5
        0.5
        0.5
        0.5
        0.5
        0.5
        0.5
        0.5
        0.5
        0.5
        0.5
        0.5
        0.5
        0.5
        0.5
        0.5
        0.5
        0.5
        0.5
        0.5
        0.5
        0.5
        0.5
        0.5
        0.5
        0.5
        0.5
        0.5
        0.5
        0.5
        0.5
        0.5
        0.5
        0.5
        0.5
        0.5
        0.5
        0.5
        0.5
        0.5
        0.5
        0.5
        0.5
        0.5
        0.5
        0.5
        0.5
        0.5
        0.5
        0.5
        0.5
        0.5
        0.5
        0.5
        0.5
        0.5
        0.5
        0.5
      </DataArray>
    </PointData>
    <Points>
      <DataArray type="Float64" NumberOfComponents="3" format="ascii">
        -0.663448 -0.663448 -0.663448
        0.40941 -0.552019 -0.552019
        2 -0.566311 -0.566311
        3.59059 -0.552019 -0.552019
        4.66345 -0.663448 -0.663448
        -0.552019 0.40941 -0.552019
        0.526436 0.526436 -0.405921
        2 0.531604 -0.422712
        3.47356 0.526436 -0.405921
        4.55202 0.40941 -0.552019
        -0.566311 2 -0.566311
        0.531604 2 -0.422712
        2 2 -0.435529
        3.4684 2 -0.422712
        4.56631 2 -0.566311
        -0.552019 3.59059 -0.552019
        0.526436 3.47356 -0.405921
        2 3.4684 -0.422712
        3.47356 3.47356 -0.405921
        4.55202 3.59059 -0.552019
        -0.663448 4.66345 -0.663448
        0.40941 4.55202 -0.552019
        2 4.56631 -0.566311
        3.59059 4.55202 -0.552019
        4.66345 4.66345 -0.663448
        -0.552019 -0.552019 0.40941
        0.526436 -0.405921 0.526436
        2 -0.422712 0.531604
        3.47356 -0.405921 0.526436
        4.55202 -0.552019 0.40941
        -0.405921 0.526436 0.526436
        0.680535 0.680535 0.680535
        2 0.684434 0.684434
        3.31946 0.680535 0.680535
        4.40592 0.526436 0.526436
        -0.422712 2 0.531604
        0.684434 2 0.684434
        2 2 0.689836
        3.31557 2 0.684434
        4.42271 2 0.531604
        -0.405921 3.47356 0.526436
        0.680535 3.31946 0.680535
        2 3.31557 0.684434
        3.31946 3.31946 0.680535
        4.40592 3.47356 0.526436
        -0.552019 4.55202 0.40941
        0.526436 4.40592 0.526436
        2 4.42271 0.531604
        3.47356 4.40592 0.526436
        4.55202 4.55202 0.40941
        -0.566311 -0.566311 2
        0.531604 -0.422712 2
        2 -0.435529 2
        3.4684 -0.422712 2
        4.56631 -0.566311 2
        -0.422712 0.531604 2
        0.684434 0.684434 2
        2 0.689836 2
        3.31557 0.684434 2
        4.42271 0.531604 2
        -0.435529 2 2
        0.689836 2 2
        2 2 2
        3.31016 2 2
        4.43553 2 2
        -0.422712 3.4684 2
        0.684434 3.31557 2
        2 3.31016 2
        3.31557 3.31557 2
        4.42271 3.4684 2
        -0.566311 4.56631 2
        0.531604 4.42271 2
        2 4.43553 2
        3.4684 4.42271 2
        4.56631 4.56631 2
        -0.552019 -0.552019 3.59059
        0.526436 -0.405921 3.47356
        2 -0.422712 3.4684
        3.47356 -0.405921 3.47356
        4.55202 -0.552019 3.59059
        -0.405921 0.526436 3.47356
        0.680535 0.680535 3.31946
        2 0.684434 3.31557
        3.31946 0.680535 3.31946
        4.40592 0.526436 3.47356
        -0.422712 2 3.4684
        0.684434 2 3.31557
        2 2 3.31016
        3.31557 2 3.31557
        4.42271 2 3.4684
        -0.405921 3.47356 3.47356
        0.680535 3.31946 3.31946
        2 3.31557 3.31557
        3.31946 3.31946 3.31946
        4.40592 3.47356 3.47356
        -0.552019 4.55202 3.59059
        0.526436 4.40592 3.47356
        2 4.42271 3.4684
        3.47356 4.40592 3.47356
        4.55202 4.55202 3.59059
        -0.663448 -0.663448 4.66345
        0.40941 -0.552019 4.55202
        2 -0.566311 4.56631
        3.59059 -0.552019 4.55202
        4.66345 -0.663448 4.66345
        -0.552019 0.40941 4.55202
        0.526436 0.526436 4.40592
        2 0.531604 4.42271
        3.47356 0.526436 4.40592
        4.55202 0.40941 4.55202
        -0.566311 2 4.56631
        0.531604 2 4.42271
        2 2 4.43553
        3.4684 2 4.42271
        4.56631 2 4.56631
        -0.552019 3.59059 4.55202
        0.526436 3.47356 4.40592
        2 3.4684 4.42271
        3.47356 3.47356 4.40592
        4.55202 3.59059 4.55202
        -0.663448 4.66345 4.66345
        0.40941 4.55202 4.55202
        2 4.56631 4.56631
        3.59059 4.55202 4.55202
        4.66345 4.66345 4.66345
      </DataArray>
    </Points>
    <Cells>
      <DataArray type="Int32" Name="connectivity" format="ascii"/>
      <DataArray type="Int32" Name="offsets" format="ascii"/>
      <DataArray type="UInt8" Name="types" format="ascii"/>
    </Cells>
  </Piece>
  </UnstructuredGrid>
</VTKFile>
