<VTKFile type="UnstructuredGrid" version="0.1">
  <UnstructuredGrid>
  <Piece NumberOfPoints="125" NumberOfCells="0">
    <PointData Scalars="Radius">
      <DataArray type="Float64" Name="Radius" format="ascii">
        0.5
        0.5
        0.5
        0.5
        0.5
        0.5
        0.5
        0.5
        0.5
        0.5
        0.5
        0.5
        0.5
        0.5
        0.5
        0.5
        0.5
        0.5
        0.5
        0.5
        0.5
        0.5
        0.5
        0.5
        0.5
        0.5
        0.5
        0.5
        0.5
        0.5
        0.5
        0.5
        0.5
        0.5
        0.5
        0.5
        0.5
        0.5
        0.5
        0.5
        0.5
        0.5
        0.5
        0.5
        0.5
        0.5
        0.5
        0.5
        0.5
        0.5
        0.5
        0.5
        0.5
        0.5
        0.5
        0.5
        0.5
        0.5
        0.5
        0.5
        0.5
        0.5
        0.5
        0.5
        0.5
        0.5
        0.5
        0.5
        0.5
        0.5
        0.5
        0.5
        0.5
        0.5
        0.5
        0.5
        0.5
        0.5
        0.5
        0.5
        0.5
        0.5
        0.5
        0.5
        0.5
        0.5
        0.5
        0.5
        0.5
        0.5
        0.5
        0.5
        0.5
        0.5
        0.5
        0.5
        0.5
        0.5
        0.5
        0.5
        0.5
        0.5
        0.5
        0.5
        0.5
        0.5
        0.5
        0.5
        0.5
        0.5
        0.5
        0.5
        0.5
        0.5
        0.5
        0.5
        0.5
        0.5
        0.5
        0.5
        0.5
        0.5
        0.5
        0.5
        0.5
      </DataArray>
    </PointData>
    <Points>
      <DataArray type="Float64" NumberOfComponents="3" format="ascii">
        -0.597331 -0.597331 -0.597331
        0.544293 -0.521398 -0.521398
        2 -0.526678 -0.526678
        3.45571 -0.521398 -0.521398
        4.59733 -0.597331 -0.597331
        -0.521398 0.544293 -0.521398
        0.615929 0.615929 -0.427049
        2 0.619753 -0.432752
        3.38407 0.615929 -0.427049
        4.5214 0.544293 -0.521398
        -0.526678 2 -0.526678
        0.619753 2 -0.432752
        2 2 -0.43773
        3.38025 2 -0.432752
        4.52668 2 -0.526678
        -0.521398 3.45571 -0.521398
        0.615929 3.38407 -0.427049
        2 3.38025 -0.432752
        3.38407 3.38407 -0.427049
        4.5214 3.45571 -0.521398
        -0.597331 4.59733 -0.597331
        0.544293 4.5214 -0.521398
        2 4.52668 -0.526678
        3.45571 4.5214 -0.521398
        4.59733 4.59733 -0.597331
        -0.521398 -0.521398 0.544293
        0.615929 -0.427049 0.615929
        2 -0.432752 0.619753
        3.38407 -0.427049 0.615929
        4.5214 -0.521398 0.544293
        -0.427049 0.615929 0.615929
        0.710884 0.710884 0.710884
        2 0.714247 0.714247
        3.28912 0.710884 0.710884
        4.42705 0.615929 0.615929
        -0.432752 2 0.619753
        0.714247 2 0.714247
        2 2 0.717725
        3.28575 2 0.714247
        4.43275 2 0.619753
        -0.427049 3.38407 0.615929
        0.710884 3.28912 0.710884
        2 3.28575 0.714247
        3.28912 3.28912 0.710884
        4.42705 3.38407 0.615929
        -0.521398 4.5214 0.544293
        0.615929 4.42705 0.615929
        2 4.43275 0.619753
        3.38407 4.42705 0.615929
        4.5214 4.5214 0.544293
        -0.526678 -0.526678 2
        0.619753 -0.432752 2
        2 -0.43773 2
        3.38025 -0.432752 2
        4.52668 -0.526678 2
        -0.432752 0.619753 2
        0.714247 0.714247 2
        2 0.717725 2
        3.28575 0.714247 2
        4.43275 0.619753 2
        -0.43773 2 2
        0.717725 2 2
        2 2 2
        3.28227 2 2
        4.43773 2 2
        -0.432752 3.38025 2
        0.714247 3.28575 2
        2 3.28227 2
        3.28575 3.28575 2
        4.43275 3.38025 2
        -0.526678 4.52668 2
        0.619753 4.43275 2
        2 4.43773 2
        3.38025 4.43275 2
        4.52668 4.52668 2
        -0.521398 -0.521398 3.45571
        0.615929 -0.427049 3.38407
        2 -0.432752 3.38025
        3.38407 -0.427049 3.38407
        4.5214 -0.521398 3.45571
        -0.427049 0.615929 3.38407
        0.710884 0.710884 3.28912
        2 0.714247 3.28575
        3.28912 0.710884 3.28912
        4.42705 0.615929 3.38407
        -0.432752 2 3.38025
        0.714247 2 3.28575
        2 2 3.28227
        3.28575 2 3.28575
        4.43275 2 3.38025
        -0.427049 3.38407 3.38407
        0.710884 3.28912 3.28912
        2 3.28575 3.28575
        3.28912 3.28912 3.28912
        4.42705 3.38407 3.38407
        -0.521398 4.5214 3.45571
        0.615929 4.42705 3.38407
        2 4.43275 3.38025
        3.38407 4.42705 3.38407
        4.5214 4.5214 3.45571
        -0.597331 -0.597331 4.59733
        0.544293 -0.521398 4.5214
        2 -0.526678 4.52668
        3.45571 -0.521398 4.5214
        4.59733 -0.597331 4.59733
        -0.521398 0.544293 4.5214
        0.615929 0.615929 4.42705
        2 0.619753 4.43275
        3.38407 0.615929 4.42705
        4.5214 0.544293 4.5214
        -0.526678 2 4.52668
        0.619753 2 4.43275
        2 2 4.43773
        3.38025 2 4.43275
        4.52668 2 4.52668
        -0.521398 3.45571 4.5214
        0.615929 3.38407 4.42705
        2 3.38025 4.43275
        3.38407 3.38407 4.42705
        4.5214 3.45571 4.5214
        -0.597331 4.59733 4.59733
        0.544293 4.5214 4.5214
        2 4.52668 4.52668
        3.45571 4.5214 4.5214
        4.59733 4.59733 4.59733
      </DataArray>
    </Points>
    <Cells>
      <DataArray type="Int32" Name="connectivity" format="ascii"/>
      <DataArray type="Int32" Name="offsets" format="ascii"/>
      <DataArray type="UInt8" Name="types" format="ascii"/>
    </Cells>
  </Piece>
  </UnstructuredGrid>
</VTKFile>
