<VTKFile type="UnstructuredGrid" version="0.1">
  <UnstructuredGrid>
  <Piece NumberOfPoints="125" NumberOfCells="0">
    <PointData Scalars="Radius">
      <DataArray type="Float64" Name="Radius" format="ascii">
        0.5
        0.5
        0.5
        0.5
        0.5
        0.5
        0.5
        0.5
        0.5
        0.5
        0.5
        0.5
        0.5
        0.5
        0.5
        0.5
        0.5
        0.5
        0.5
        0.5
        0.5
        0.5
        0.5
        0.5
        0.5
        0.5
        0.5
        0.5
        0.5
        0.5
        0.5
        0.5
        0.5
        0.5
        0.5
        0.5
        0.5
        0.5
        0.5
        0.5
        0.5
        0.5
        0.5
        0.5
        0.5
        0.5
        0.5
        0.5
        0.5
        0.5
        0.5
        0.5
        0.5
        0.5
        0.5
        0.5
        0.5
        0.5
        0.5
        0.5
        0.5
        0.5
        0.5
        0.5
        0.5
        0.5
        0.5
        0.5
        0.5
        0.5
        0.5
        0.5
        0.5
        0.5
        0.5
        0.5
        0.5
        0.5
        0.5
        0.5
        0.5
        0.5
        0.5
        0.5
        0.5
        0.5
        0.5
        0.5
        0.5
        0.5
        0.5
        0.5
        0.5
        0.5
        0.5
        0.5
        0.5
        0.5
        0.5
        0.5
        0.5
        0.5
        0.5
        0.5
        0.5
        0.5
        0.5
        0.5
        0.5
        0.5
        0.5
        0.5
        0.5
        0.5
        0.5
        0.5
        0.5
        0.5
        0.5
        0.5
        0.5
        0.5
        0.5
        0.5
        0.5
      </DataArray>
    </PointData>
    <Points>
      <DataArray type="Float64" NumberOfComponents="3" format="ascii">
        -0.271932 -0.271932 -0.271932
        0.852369 -0.248181 -0.248181
        2 -0.246676 -0.246676
        3.14763 -0.248181 -0.248181
        4.27193 -0.271932 -0.271932
        -0.248181 0.852369 -0.248181
        0.863229 0.863229 -0.219947
        2 0.863719 -0.218316
        3.13677 0.863229 -0.219947
        4.24818 0.852369 -0.248181
        -0.246676 2 -0.246676
        0.863719 2 -0.218316
        2 2 -0.216722
        3.13628 2 -0.218316
        4.24668 2 -0.246676
        -0.248181 3.14763 -0.248181
        0.863229 3.13677 -0.219947
        2 3.13628 -0.218316
        3.13677 3.13677 -0.219947
        4.24818 3.14763 -0.248181
        -0.271932 4.27193 -0.271932
        0.852369 4.24818 -0.248181
        2 4.24668 -0.246676
        3.14763 4.24818 -0.248181
        4.27193 4.27193 -0.271932
        -0.248181 -0.248181 0.852369
        0.863229 -0.219947 0.863229
        2 -0.218316 0.863719
        3.13677 -0.219947 0.863229
        4.24818 -0.248181 0.852369
        -0.219947 0.863229 0.863229
        0.877288 0.877288 0.877288
        2 0.87791 0.87791
        3.12271 0.877288 0.877288
        4.21995 0.863229 0.863229
        -0.218316 2 0.863719
        0.87791 2 0.87791
        2 2 0.878543
        3.12209 2 0.87791
        4.21832 2 0.863719
        -0.219947 3.13677 0.863229
        0.877288 3.12271 0.877288
        2 3.12209 0.87791
        3.12271 3.12271 0.877288
        4.21995 3.13677 0.863229
        -0.248181 4.24818 0.852369
        0.863229 4.21995 0.863229
        2 4.21832 0.863719
        3.13677 4.21995 0.863229
        4.24818 4.24818 0.852369
        -0.246676 -0.246676 2
        0.863719 -0.218316 2
        2 -0.216722 2
        3.13628 -0.218316 2
        4.24668 -0.246676 2
        -0.218316 0.863719 2
        0.87791 0.87791 2
        2 0.878543 2
        3.12209 0.87791 2
        4.21832 0.863719 2
        -0.216722 2 2
        0.878543 2 2
        2 2 2
        3.12146 2 2
        4.21672 2 2
        -0.218316 3.13628 2
        0.87791 3.12209 2
        2 3.12146 2
        3.12209 3.12209 2
        4.21832 3.13628 2
        -0.246676 4.24668 2
        0.863719 4.21832 2
        2 4.21672 2
        3.13628 4.21832 2
        4.24668 4.24668 2
        -0.248181 -0.248181 3.14763
        0.863229 -0.219947 3.13677
        2 -0.218316 3.13628
        3.13677 -0.219947 3.13677
        4.24818 -0.248181 3.14763
        -0.219947 0.863229 3.13677
        0.877288 0.877288 3.12271
        2 0.87791 3.12209
        3.12271 0.877288 3.12271
        4.21995 0.863229 3.13677
        -0.218316 2 3.13628
        0.87791 2 3.12209
        2 2 3.12146
        3.12209 2 3.12209
        4.21832 2 3.13628
        -0.219947 3.13677 3.13677
        0.877288 3.12271 3.12271
        2 3.12209 3.12209
        3.12271 3.12271 3.12271
        4.21995 3.13677 3.13677
        -0.248181 4.24818 3.14763
        0.863229 4.21995 3.13677
        2 4.21832 3.13628
        3.13677 4.21995 3.13677
        4.24818 4.24818 3.14763
        -0.271932 -0.271932 4.27193
        0.852369 -0.248181 4.24818
        2 -0.246676 4.24668
        3.14763 -0.248181 4.24818
        4.27193 -0.271932 4.27193
        -0.248181 0.852369 4.24818
        0.863229 0.863229 4.21995
        2 0.863719 4.21832
        3.13677 0.863229 4.21995
        4.24818 0.852369 4.24818
        -0.246676 2 4.24668
        0.863719 2 4.21832
        2 2 4.21672
        3.13628 2 4.21832
        4.24668 2 4.24668
        -0.248181 3.14763 4.24818
        0.863229 3.13677 4.21995
        2 3.13628 4.21832
        3.13677 3.13677 4.21995
        4.24818 3.14763 4.24818
        -0.271932 4.27193 4.27193
        0.852369 4.24818 4.24818
        2 4.24668 4.24668
        3.14763 4.24818 4.24818
        4.27193 4.27193 4.27193
      </DataArray>
    </Points>
    <Cells>
      <DataArray type="Int32" Name="connectivity" format="ascii"/>
      <DataArray type="Int32" Name="offsets" format="ascii"/>
      <DataArray type="UInt8" Name="types" format="ascii"/>
    </Cells>
  </Piece>
  </UnstructuredGrid>
</VTKFile>
