<VTKFile type="UnstructuredGrid" version="0.1">
  <UnstructuredGrid>
  <Piece NumberOfPoints="125" NumberOfCells="0">
    <PointData Scalars="Radius">
      <DataArray type="Float64" Name="Radius" format="ascii">
        0.5
        0.5
        0.5
        0.5
        0.5
        0.5
        0.5
        0.5
        0.5
        0.5
        0.5
        0.5
        0.5
        0.5
        0.5
        0.5
        0.5
        0.5
        0.5
        0.5
        0.5
        0.5
        0.5
        0.5
        0.5
        0.5
        0.5
        0.5
        0.5
        0.5
        0.5
        0.5
        0.5
        0.5
        0.5
        0.5
        0.5
        0.5
        0.5
        0.5
        0.5
        0.5
        0.5
        0.5
        0.5
        0.5
        0.5
        0.5
        0.5
        0.5
        0.5
        0.5
        0.5
        0.5
        0.5
        0.5
        0.5
        0.5
        0.5
        0.5
        0.5
        0.5
        0.5
        0.5
        0.5
        0.5
        0.5
        0.5
        0.5
        0.5
        0.5
        0.5
        0.5
        0.5
        0.5
        0.5
        0.5
        0.5
        0.5
        0.5
        0.5
        0.5
        0.5
        0.5
        0.5
        0.5
        0.5
        0.5
        0.5
        0.5
        0.5
        0.5
        0.5
        0.5
        0.5
        0.5
        0.5
        0.5
        0.5
        0.5
        0.5
        0.5
        0.5
        0.5
        0.5
        0.5
        0.5
        0.5
        0.5
        0.5
        0.5
        0.5
        0.5
        0.5
        0.5
        0.5
        0.5
        0.5
        0.5
        0.5
        0.5
        0.5
        0.5
        0.5
        0.5
      </DataArray>
    </PointData>
    <Points>
      <DataArray type="Float64" NumberOfComponents="3" format="ascii">
        -0.252343 -0.252343 -0.252343
        0.866627 -0.230567 -0.230567
        2 -0.229138 -0.229138
        3.13337 -0.230567 -0.230567
        4.25234 -0.252343 -0.252343
        -0.230567 0.866627 -0.230567
        0.876198 0.876198 -0.204604
        2 0.876621 -0.203024
        3.1238 0.876198 -0.204604
        4.23057 0.866627 -0.230567
        -0.229138 2 -0.229138
        0.876621 2 -0.203024
        2 2 -0.20147
        3.12338 2 -0.203024
        4.22914 2 -0.229138
        -0.230567 3.13337 -0.230567
        0.876198 3.1238 -0.204604
        2 3.12338 -0.203024
        3.1238 3.1238 -0.204604
        4.23057 3.13337 -0.230567
        -0.252343 4.25234 -0.252343
        0.866627 4.23057 -0.230567
        2 4.22914 -0.229138
        3.13337 4.23057 -0.230567
        4.25234 4.25234 -0.252343
        -0.230567 -0.230567 0.866627
        0.876198 -0.204604 0.876198
        2 -0.203024 0.876621
        3.1238 -0.204604 0.876198
        4.23057 -0.230567 0.866627
        -0.204604 0.876198 0.876198
        0.888524 0.888524 0.888524
        2 0.889074 0.889074
        3.11148 0.888524 0.888524
        4.2046 0.876198 0.876198
        -0.203024 2 0.876621
        0.889074 2 0.889074
        2 2 0.889636
        3.11093 2 0.889074
        4.20302 2 0.876621
        -0.204604 3.1238 0.876198
        0.888524 3.11148 0.888524
        2 3.11093 0.889074
        3.11148 3.11148 0.888524
        4.2046 3.1238 0.876198
        -0.230567 4.23057 0.866627
        0.876198 4.2046 0.876198
        2 4.20302 0.876621
        3.1238 4.2046 0.876198
        4.23057 4.23057 0.866627
        -0.229138 -0.229138 2
        0.876621 -0.203024 2
        2 -0.20147 2
        3.12338 -0.203024 2
        4.22914 -0.229138 2
        -0.203024 0.876621 2
        0.889074 0.889074 2
        2 0.889636 2
        3.11093 0.889074 2
        4.20302 0.876621 2
        -0.20147 2 2
        0.889636 2 2
        2 2 2
        3.11036 2 2
        4.20147 2 2
        -0.203024 3.12338 2
        0.889074 3.11093 2
        2 3.11036 2
        3.11093 3.11093 2
        4.20302 3.12338 2
        -0.229138 4.22914 2
        0.876621 4.20302 2
        2 4.20147 2
        3.12338 4.20302 2
        4.22914 4.22914 2
        -0.230567 -0.230567 3.13337
        0.876198 -0.204604 3.1238
        2 -0.203024 3.12338
        3.1238 -0.204604 3.1238
        4.23057 -0.230567 3.13337
        -0.204604 0.876198 3.1238
        0.888524 0.888524 3.11148
        2 0.889074 3.11093
        3.11148 0.888524 3.11148
        4.2046 0.876198 3.1238
        -0.203024 2 3.12338
        0.889074 2 3.11093
        2 2 3.11036
        3.11093 2 3.11093
        4.20302 2 3.12338
        -0.204604 3.1238 3.1238
        0.888524 3.11148 3.11148
        2 3.11093 3.11093
        3.11148 3.11148 3.11148
        4.2046 3.1238 3.1238
        -0.230567 4.23057 3.13337
        0.876198 4.2046 3.1238
        2 4.20302 3.12338
        3.1238 4.2046 3.1238
        4.23057 4.23057 3.13337
        -0.252343 -0.252343 4.25234
        0.866627 -0.230567 4.23057
        2 -0.229138 4.22914
        3.13337 -0.230567 4.23057
        4.25234 -0.252343 4.25234
        -0.230567 0.866627 4.23057
        0.876198 0.876198 4.2046
        2 0.876621 4.20302
        3.1238 0.876198 4.2046
        4.23057 0.866627 4.23057
        -0.229138 2 4.22914
        0.876621 2 4.20302
        2 2 4.20147
        3.12338 2 4.20302
        4.22914 2 4.22914
        -0.230567 3.13337 4.23057
        0.876198 3.1238 4.2046
        2 3.12338 4.20302
        3.1238 3.1238 4.2046
        4.23057 3.13337 4.23057
        -0.252343 4.25234 4.25234
        0.866627 4.23057 4.23057
        2 4.22914 4.22914
        3.13337 4.23057 4.23057
        4.25234 4.25234 4.25234
      </DataArray>
    </Points>
    <Cells>
      <DataArray type="Int32" Name="connectivity" format="ascii"/>
      <DataArray type="Int32" Name="offsets" format="ascii"/>
      <DataArray type="UInt8" Name="types" format="ascii"/>
    </Cells>
  </Piece>
  </UnstructuredGrid>
</VTKFile>
