<VTKFile type="UnstructuredGrid" version="0.1">
  <UnstructuredGrid>
  <Piece NumberOfPoints="125" NumberOfCells="0">
    <PointData Scalars="Radius">
      <DataArray type="Float64" Name="Radius" format="ascii">
        0.5
        0.5
        0.5
        0.5
        0.5
        0.5
        0.5
        0.5
        0.5
        0.5
        0.5
        0.5
        0.5
        0.5
        0.5
        0.5
        0.5
        0.5
        0.5
        0.5
        0.5
        0.5
        0.5
        0.5
        0.5
        0.5
        0.5
        0.5
        0.5
        0.5
        0.5
        0.5
        0.5
        0.5
        0.5
        0.5
        0.5
        0.5
        0.5
        0.5
        0.5
        0.5
        0.5
        0.5
        0.5
        0.5
        0.5
        0.5
        0.5
        0.5
        0.5
        0.5
        0.5
        0.5
        0.5
        0.5
        0.5
        0.5
        0.5
        0.5
        0.5
        0.5
        0.5
        0.5
        0.5
        0.5
        0.5
        0.5
        0.5
        0.5
        0.5
        0.5
        0.5
        0.5
        0.5
        0.5
        0.5
        0.5
        0.5
        0.5
        0.5
        0.5
        0.5
        0.5
        0.5
        0.5
        0.5
        0.5
        0.5
        0.5
        0.5
        0.5
        0.5
        0.5
        0.5
        0.5
        0.5
        0.5
        0.5
        0.5
        0.5
        0.5
        0.5
        0.5
        0.5
        0.5
        0.5
        0.5
        0.5
        0.5
        0.5
        0.5
        0.5
        0.5
        0.5
        0.5
        0.5
        0.5
        0.5
        0.5
        0.5
        0.5
        0.5
        0.5
        0.5
      </DataArray>
    </PointData>
    <Points>
      <DataArray type="Float64" NumberOfComponents="3" format="ascii">
        -0.612193 -0.612193 -0.612193
        0.516402 -0.530527 -0.530527
        2 -0.537286 -0.537286
        3.4836 -0.530527 -0.530527
        4.61219 -0.612193 -0.612193
        -0.530527 0.516402 -0.530527
        0.596451 0.596451 -0.427763
        2 0.600805 -0.43502
        3.40355 0.596451 -0.427763
        4.53053 0.516402 -0.530527
        -0.537286 2 -0.537286
        0.600805 2 -0.43502
        2 2 -0.441185
        3.3992 2 -0.43502
        4.53729 2 -0.537286
        -0.530527 3.4836 -0.530527
        0.596451 3.40355 -0.427763
        2 3.3992 -0.43502
        3.40355 3.40355 -0.427763
        4.53053 3.4836 -0.530527
        -0.612193 4.61219 -0.612193
        0.516402 4.53053 -0.530527
        2 4.53729 -0.537286
        3.4836 4.53053 -0.530527
        4.61219 4.61219 -0.612193
        -0.530527 -0.530527 0.516402
        0.596451 -0.427763 0.596451
        2 -0.43502 0.600805
        3.40355 -0.427763 0.596451
        4.53053 -0.530527 0.516402
        -0.427763 0.596451 0.596451
        0.702268 0.702268 0.702268
        2 0.705987 0.705987
        3.29773 0.702268 0.702268
        4.42776 0.596451 0.596451
        -0.43502 2 0.600805
        0.705987 2 0.705987
        2 2 0.709936
        3.29401 2 0.705987
        4.43502 2 0.600805
        -0.427763 3.40355 0.596451
        0.702268 3.29773 0.702268
        2 3.29401 0.705987
        3.29773 3.29773 0.702268
        4.42776 3.40355 0.596451
        -0.530527 4.53053 0.516402
        0.596451 4.42776 0.596451
        2 4.43502 0.600805
        3.40355 4.42776 0.596451
        4.53053 4.53053 0.516402
        -0.537286 -0.537286 2
        0.600805 -0.43502 2
        2 -0.441185 2
        3.3992 -0.43502 2
        4.53729 -0.537286 2
        -0.43502 0.600805 2
        0.705987 0.705987 2
        2 0.709936 2
        3.29401 0.705987 2
        4.43502 0.600805 2
        -0.441185 2 2
        0.709936 2 2
        2 2 2
        3.29006 2 2
        4.44119 2 2
        -0.43502 3.3992 2
        0.705987 3.29401 2
        2 3.29006 2
        3.29401 3.29401 2
        4.43502 3.3992 2
        -0.537286 4.53729 2
        0.600805 4.43502 2
        2 4.44119 2
        3.3992 4.43502 2
        4.53729 4.53729 2
        -0.530527 -0.530527 3.4836
        0.596451 -0.427763 3.40355
        2 -0.43502 3.3992
        3.40355 -0.427763 3.40355
        4.53053 -0.530527 3.4836
        -0.427763 0.596451 3.40355
        0.702268 0.702268 3.29773
        2 0.705987 3.29401
        3.29773 0.702268 3.29773
        4.42776 0.596451 3.40355
        -0.43502 2 3.3992
        0.705987 2 3.29401
        2 2 3.29006
        3.29401 2 3.29401
        4.43502 2 3.3992
        -0.427763 3.40355 3.40355
        0.702268 3.29773 3.29773
        2 3.29401 3.29401
        3.29773 3.29773 3.29773
        4.42776 3.40355 3.40355
        -0.530527 4.53053 3.4836
        0.596451 4.42776 3.40355
        2 4.43502 3.3992
        3.40355 4.42776 3.40355
        4.53053 4.53053 3.4836
        -0.612193 -0.612193 4.61219
        0.516402 -0.530527 4.53053
        2 -0.537286 4.53729
        3.4836 -0.530527 4.53053
        4.61219 -0.612193 4.61219
        -0.530527 0.516402 4.53053
        0.596451 0.596451 4.42776
        2 0.600805 4.43502
        3.40355 0.596451 4.42776
        4.53053 0.516402 4.53053
        -0.537286 2 4.53729
        0.600805 2 4.43502
        2 2 4.44119
        3.3992 2 4.43502
        4.53729 2 4.53729
        -0.530527 3.4836 4.53053
        0.596451 3.40355 4.42776
        2 3.3992 4.43502
        3.40355 3.40355 4.42776
        4.53053 3.4836 4.53053
        -0.612193 4.61219 4.61219
        0.516402 4.53053 4.53053
        2 4.53729 4.53729
        3.4836 4.53053 4.53053
        4.61219 4.61219 4.61219
      </DataArray>
    </Points>
    <Cells>
      <DataArray type="Int32" Name="connectivity" format="ascii"/>
      <DataArray type="Int32" Name="offsets" format="ascii"/>
      <DataArray type="UInt8" Name="types" format="ascii"/>
    </Cells>
  </Piece>
  </UnstructuredGrid>
</VTKFile>
