<VTKFile type="UnstructuredGrid" version="0.1">
  <UnstructuredGrid>
  <Piece NumberOfPoints="125" NumberOfCells="0">
    <PointData Scalars="Radius">
      <DataArray type="Float64" Name="Radius" format="ascii">
        0.5
        0.5
        0.5
        0.5
        0.5
        0.5
        0.5
        0.5
        0.5
        0.5
        0.5
        0.5
        0.5
        0.5
        0.5
        0.5
        0.5
        0.5
        0.5
        0.5
        0.5
        0.5
        0.5
        0.5
        0.5
        0.5
        0.5
        0.5
        0.5
        0.5
        0.5
        0.5
        0.5
        0.5
        0.5
        0.5
        0.5
        0.5
        0.5
        0.5
        0.5
        0.5
        0.5
        0.5
        0.5
        0.5
        0.5
        0.5
        0.5
        0.5
        0.5
        0.5
        0.5
        0.5
        0.5
        0.5
        0.5
        0.5
        0.5
        0.5
        0.5
        0.5
        0.5
        0.5
        0.5
        0.5
        0.5
        0.5
        0.5
        0.5
        0.5
        0.5
        0.5
        0.5
        0.5
        0.5
        0.5
        0.5
        0.5
        0.5
        0.5
        0.5
        0.5
        0.5
        0.5
        0.5
        0.5
        0.5
        0.5
        0.5
        0.5
        0.5
        0.5
        0.5
        0.5
        0.5
        0.5
        0.5
        0.5
        0.5
        0.5
        0.5
        0.5
        0.5
        0.5
        0.5
        0.5
        0.5
        0.5
        0.5
        0.5
        0.5
        0.5
        0.5
        0.5
        0.5
        0.5
        0.5
        0.5
        0.5
        0.5
        0.5
        0.5
        0.5
        0.5
      </DataArray>
    </PointData>
    <Points>
      <DataArray type="Float64" NumberOfComponents="3" format="ascii">
        -1.04774 -1.04774 -1.04774
        0.152853 -0.671239 -0.671239
        2.00001 -0.689727 -0.689727
        3.83917 -0.668314 -0.668314
        5.06198 -1.06198 -1.06198
        -0.671239 0.152853 -0.671239
        0.537621 0.537621 -0.304032
        2 0.527173 -0.294882
        3.46221 0.537792 -0.303946
        4.66831 0.160828 -0.668314
        -0.689727 2.00001 -0.689727
        0.527173 2 -0.294882
        2 2 -0.209247
        3.47283 2 -0.294882
        4.68973 2 -0.689727
        -0.668314 3.83917 -0.668314
        0.537792 3.46221 -0.303946
        2 3.47283 -0.294882
        3.46221 3.46221 -0.303946
        4.66831 3.83917 -0.668314
        -1.06198 5.06198 -1.06198
        0.160828 4.66831 -0.668314
        2 4.68973 -0.689727
        3.83917 4.66831 -0.668314
        5.06198 5.06198 -1.06198
        -0.671239 -0.671239 0.152853
        0.537621 -0.304032 0.537621
        2 -0.294882 0.527173
        3.46221 -0.303946 0.537792
        4.66831 -0.668314 0.160828
        -0.304032 0.537621 0.537621
        0.938975 0.938975 0.938975
        2 0.934617 0.934617
        3.06103 0.938973 0.938973
        4.30395 0.537792 0.537792
        -0.294882 2 0.527173
        0.934617 2 0.934617
        2 2 0.948458
        3.06538 2 0.934617
        4.29488 2 0.527172
        -0.303946 3.46221 0.537792
        0.938973 3.06103 0.938973
        2 3.06538 0.934617
        3.06103 3.06103 0.938973
        4.30395 3.46221 0.537792
        -0.668314 4.66831 0.160828
        0.537792 4.30395 0.537792
        2 4.29488 0.527172
        3.46221 4.30395 0.537792
        4.66831 4.66831 0.160828
        -0.689727 -0.689727 2.00001
        0.527173 -0.294882 2
        2 -0.209247 2
        3.47283 -0.294882 2
        4.68973 -0.689727 2
        -0.294882 0.527173 2
        0.934617 0.934617 2
        2 0.948458 2
        3.06538 0.934617 2
        4.29488 0.527172 2
        -0.209247 2 2
        0.948458 2 2
        2 2 2
        3.05154 2 2
        4.20925 2 2
        -0.294882 3.47283 2
        0.934617 3.06538 2
        2 3.05154 2
        3.06538 3.06538 2
        4.29488 3.47283 2
        -0.689727 4.68973 2
        0.527172 4.29488 2
        2 4.20925 2
        3.47283 4.29488 2
        4.68973 4.68973 2
        -0.668314 -0.668314 3.83917
        0.537792 -0.303946 3.46221
        2 -0.294882 3.47283
        3.46221 -0.303946 3.46221
        4.66831 -0.668314 3.83917
        -0.303946 0.537792 3.46221
        0.938973 0.938973 3.06103
        2 0.934617 3.06538
        3.06103 0.938973 3.06103
        4.30395 0.537792 3.46221
        -0.294882 2 3.47283
        0.934617 2 3.06538
        2 2 3.05154
        3.06538 2 3.06538
        4.29488 2 3.47283
        -0.303946 3.46221 3.46221
        0.938973 3.06103 3.06103
        2 3.06538 3.06538
        3.06103 3.06103 3.06103
        4.30395 3.46221 3.46221
        -0.668314 4.66831 3.83917
        0.537792 4.30395 3.46221
        2 4.29488 3.47283
        3.46221 4.30395 3.46221
        4.66831 4.66831 3.83917
        -1.06198 -1.06198 5.06198
        0.160828 -0.668314 4.66831
        2 -0.689727 4.68973
        3.83917 -0.668314 4.66831
        5.06198 -1.06198 5.06198
        -0.668314 0.160828 4.66831
        0.537792 0.537792 4.30395
        2 0.527172 4.29488
        3.46221 0.537792 4.30395
        4.66831 0.160828 4.66831
        -0.689727 2 4.68973
        0.527172 2 4.29488
        2 2 4.20925
        3.47283 2 4.29488
        4.68973 2 4.68973
        -0.668314 3.83917 4.66831
        0.537792 3.46221 4.30395
        2 3.47283 4.29488
        3.46221 3.46221 4.30395
        4.66831 3.83917 4.66831
        -1.06198 5.06198 5.06198
        0.160828 4.66831 4.66831
        2 4.68973 4.68973
        3.83917 4.66831 4.66831
        5.06198 5.06198 5.06198
      </DataArray>
    </Points>
    <Cells>
      <DataArray type="Int32" Name="connectivity" format="ascii"/>
      <DataArray type="Int32" Name="offsets" format="ascii"/>
      <DataArray type="UInt8" Name="types" format="ascii"/>
    </Cells>
  </Piece>
  </UnstructuredGrid>
</VTKFile>
