<VTKFile type="UnstructuredGrid" version="0.1">
  <UnstructuredGrid>
  <Piece NumberOfPoints="125" NumberOfCells="0">
    <PointData Scalars="Radius">
      <DataArray type="Float64" Name="Radius" format="ascii">
        0.5
        0.5
        0.5
        0.5
        0.5
        0.5
        0.5
        0.5
        0.5
        0.5
        0.5
        0.5
        0.5
        0.5
        0.5
        0.5
        0.5
        0.5
        0.5
        0.5
        0.5
        0.5
        0.5
        0.5
        0.5
        0.5
        0.5
        0.5
        0.5
        0.5
        0.5
        0.5
        0.5
        0.5
        0.5
        0.5
        0.5
        0.5
        0.5
        0.5
        0.5
        0.5
        0.5
        0.5
        0.5
        0.5
        0.5
        0.5
        0.5
        0.5
        0.5
        0.5
        0.5
        0.5
        0.5
        0.5
        0.5
        0.5
        0.5
        0.5
        0.5
        0.5
        0.5
        0.5
        0.5
        0.5
        0.5
        0.5
        0.5
        0.5
        0.5
        0.5
        0.5
        0.5
        0.5
        0.5
        0.5
        0.5
        0.5
        0.5
        0.5
        0.5
        0.5
        0.5
        0.5
        0.5
        0.5
        0.5
        0.5
        0.5
        0.5
        0.5
        0.5
        0.5
        0.5
        0.5
        0.5
        0.5
        0.5
        0.5
        0.5
        0.5
        0.5
        0.5
        0.5
        0.5
        0.5
        0.5
        0.5
        0.5
        0.5
        0.5
        0.5
        0.5
        0.5
        0.5
        0.5
        0.5
        0.5
        0.5
        0.5
        0.5
        0.5
        0.5
        0.5
      </DataArray>
    </PointData>
    <Points>
      <DataArray type="Float64" NumberOfComponents="3" format="ascii">
        -1.0686 -1.0686 -1.0686
        0.168866 -0.686305 -0.686305
        2.00006 -0.667926 -0.667926
        3.80652 -0.676707 -0.676707
        5.11321 -1.11321 -1.11321
        -0.686305 0.168866 -0.686305
        0.545228 0.545228 -0.280269
        2.00002 0.573967 -0.269777
        3.45442 0.545584 -0.280049
        4.67671 0.193481 -0.676707
        -0.667926 2.00006 -0.667926
        0.573967 2.00002 -0.269777
        2 2 -0.113256
        3.42604 2 -0.269778
        4.66792 2 -0.667921
        -0.676707 3.80652 -0.676707
        0.545584 3.45442 -0.280049
        2 3.42604 -0.269778
        3.45442 3.45442 -0.280049
        4.67671 3.80652 -0.676707
        -1.11321 5.11321 -1.11321
        0.193481 4.67671 -0.676707
        2 4.66792 -0.667921
        3.80652 4.67671 -0.676707
        5.11321 5.11321 -1.11321
        -0.686305 -0.686305 0.168866
        0.545228 -0.280269 0.545228
        2.00002 -0.269777 0.573967
        3.45442 -0.280049 0.545584
        4.67671 -0.676707 0.193481
        -0.280269 0.545228 0.545228
        0.93863 0.93863 0.93863
        2 0.956927 0.956927
        3.06139 0.938612 0.938612
        4.28005 0.545584 0.545584
        -0.269777 2.00002 0.573967
        0.956927 2 0.956927
        2 2 0.991162
        3.04307 2 0.956927
        4.26978 2 0.573959
        -0.280049 3.45442 0.545584
        0.938612 3.06139 0.938612
        2 3.04307 0.956927
        3.06139 3.06139 0.938612
        4.28005 3.45442 0.545584
        -0.676707 4.67671 0.193481
        0.545584 4.28005 0.545584
        2 4.26978 0.573959
        3.45442 4.28005 0.545584
        4.67671 4.67671 0.193481
        -0.667926 -0.667926 2.00006
        0.573967 -0.269777 2.00002
        2 -0.113256 2
        3.42604 -0.269778 2
        4.66792 -0.667921 2
        -0.269777 0.573967 2.00002
        0.956927 0.956927 2
        2 0.991162 2
        3.04307 0.956927 2
        4.26978 0.573959 2
        -0.113256 2 2
        0.991162 2 2
        2 2 2
        3.00884 2 2
        4.11326 2 2
        -0.269778 3.42604 2
        0.956927 3.04307 2
        2 3.00884 2
        3.04307 3.04307 2
        4.26978 3.42604 2
        -0.667921 4.66792 2
        0.573959 4.26978 2
        2 4.11326 2
        3.42604 4.26978 2
        4.66792 4.66792 2
        -0.676707 -0.676707 3.80652
        0.545584 -0.280049 3.45442
        2 -0.269778 3.42604
        3.45442 -0.280049 3.45442
        4.67671 -0.676707 3.80652
        -0.280049 0.545584 3.45442
        0.938612 0.938612 3.06139
        2 0.956927 3.04307
        3.06139 0.938612 3.06139
        4.28005 0.545584 3.45442
        -0.269778 2 3.42604
        0.956927 2 3.04307
        2 2 3.00884
        3.04307 2 3.04307
        4.26978 2 3.42604
        -0.280049 3.45442 3.45442
        0.938612 3.06139 3.06139
        2 3.04307 3.04307
        3.06139 3.06139 3.06139
        4.28005 3.45442 3.45442
        -0.676707 4.67671 3.80652
        0.545584 4.28005 3.45442
        2 4.26978 3.42604
        3.45442 4.28005 3.45442
        4.67671 4.67671 3.80652
        -1.11321 -1.11321 5.11321
        0.193481 -0.676707 4.67671
        2 -0.667921 4.66792
        3.80652 -0.676707 4.67671
        5.11321 -1.11321 5.11321
        -0.676707 0.193481 4.67671
        0.545584 0.545584 4.28005
        2 0.573959 4.26978
        3.45442 0.545584 4.28005
        4.67671 0.193481 4.67671
        -0.667921 2 4.66792
        0.573959 2 4.26978
        2 2 4.11326
        3.42604 2 4.26978
        4.66792 2 4.66792
        -0.676707 3.80652 4.67671
        0.545584 3.45442 4.28005
        2 3.42604 4.26978
        3.45442 3.45442 4.28005
        4.67671 3.80652 4.67671
        -1.11321 5.11321 5.11321
        0.193481 4.67671 4.67671
        2 4.66792 4.66792
        3.80652 4.67671 4.67671
        5.11321 5.11321 5.11321
      </DataArray>
    </Points>
    <Cells>
      <DataArray type="Int32" Name="connectivity" format="ascii"/>
      <DataArray type="Int32" Name="offsets" format="ascii"/>
      <DataArray type="UInt8" Name="types" format="ascii"/>
    </Cells>
  </Piece>
  </UnstructuredGrid>
</VTKFile>
