<VTKFile type="UnstructuredGrid" version="0.1">
  <UnstructuredGrid>
  <Piece NumberOfPoints="125" NumberOfCells="0">
    <PointData Scalars="Radius">
      <DataArray type="Float64" Name="Radius" format="ascii">
        0.5
        0.5
        0.5
        0.5
        0.5
        0.5
        0.5
        0.5
        0.5
        0.5
        0.5
        0.5
        0.5
        0.5
        0.5
        0.5
        0.5
        0.5
        0.5
        0.5
        0.5
        0.5
        0.5
        0.5
        0.5
        0.5
        0.5
        0.5
        0.5
        0.5
        0.5
        0.5
        0.5
        0.5
        0.5
        0.5
        0.5
        0.5
        0.5
        0.5
        0.5
        0.5
        0.5
        0.5
        0.5
        0.5
        0.5
        0.5
        0.5
        0.5
        0.5
        0.5
        0.5
        0.5
        0.5
        0.5
        0.5
        0.5
        0.5
        0.5
        0.5
        0.5
        0.5
        0.5
        0.5
        0.5
        0.5
        0.5
        0.5
        0.5
        0.5
        0.5
        0.5
        0.5
        0.5
        0.5
        0.5
        0.5
        0.5
        0.5
        0.5
        0.5
        0.5
        0.5
        0.5
        0.5
        0.5
        0.5
        0.5
        0.5
        0.5
        0.5
        0.5
        0.5
        0.5
        0.5
        0.5
        0.5
        0.5
        0.5
        0.5
        0.5
        0.5
        0.5
        0.5
        0.5
        0.5
        0.5
        0.5
        0.5
        0.5
        0.5
        0.5
        0.5
        0.5
        0.5
        0.5
        0.5
        0.5
        0.5
        0.5
        0.5
        0.5
        0.5
        0.5
      </DataArray>
    </PointData>
    <Points>
      <DataArray type="Float64" NumberOfComponents="3" format="ascii">
        -0.589316 -0.589316 -0.589316
        0.55801 -0.516094 -0.516094
        2 -0.520706 -0.520706
        3.44199 -0.516094 -0.516094
        4.58932 -0.589316 -0.589316
        -0.516094 0.55801 -0.516094
        0.625668 0.625668 -0.42565
        2 0.629233 -0.430669
        3.37433 0.625668 -0.42565
        4.51609 0.55801 -0.516094
        -0.520706 2 -0.520706
        0.629233 2 -0.430669
        2 2 -0.43511
        3.37077 2 -0.430669
        4.52071 2 -0.520706
        -0.516094 3.44199 -0.516094
        0.625668 3.37433 -0.42565
        2 3.37077 -0.430669
        3.37433 3.37433 -0.42565
        4.51609 3.44199 -0.516094
        -0.589316 4.58932 -0.589316
        0.55801 4.51609 -0.516094
        2 4.52071 -0.520706
        3.44199 4.51609 -0.516094
        4.58932 4.58932 -0.589316
        -0.516094 -0.516094 0.55801
        0.625668 -0.42565 0.625668
        2 -0.430669 0.629233
        3.37433 -0.42565 0.625668
        4.51609 -0.516094 0.55801
        -0.42565 0.625668 0.625668
        0.715476 0.715476 0.715476
        2 0.71866 0.71866
        3.28452 0.715476 0.715476
        4.42565 0.625668 0.625668
        -0.430669 2 0.629233
        0.71866 2 0.71866
        2 2 0.721916
        3.28134 2 0.71866
        4.43067 2 0.629233
        -0.42565 3.37433 0.625668
        0.715476 3.28452 0.715476
        2 3.28134 0.71866
        3.28452 3.28452 0.715476
        4.42565 3.37433 0.625668
        -0.516094 4.51609 0.55801
        0.625668 4.42565 0.625668
        2 4.43067 0.629233
        3.37433 4.42565 0.625668
        4.51609 4.51609 0.55801
        -0.520706 -0.520706 2
        0.629233 -0.430669 2
        2 -0.43511 2
        3.37077 -0.430669 2
        4.52071 -0.520706 2
        -0.430669 0.629233 2
        0.71866 0.71866 2
        2 0.721916 2
        3.28134 0.71866 2
        4.43067 0.629233 2
        -0.43511 2 2
        0.721916 2 2
        2 2 2
        3.27808 2 2
        4.43511 2 2
        -0.430669 3.37077 2
        0.71866 3.28134 2
        2 3.27808 2
        3.28134 3.28134 2
        4.43067 3.37077 2
        -0.520706 4.52071 2
        0.629233 4.43067 2
        2 4.43511 2
        3.37077 4.43067 2
        4.52071 4.52071 2
        -0.516094 -0.516094 3.44199
        0.625668 -0.42565 3.37433
        2 -0.430669 3.37077
        3.37433 -0.42565 3.37433
        4.51609 -0.516094 3.44199
        -0.42565 0.625668 3.37433
        0.715476 0.715476 3.28452
        2 0.71866 3.28134
        3.28452 0.715476 3.28452
        4.42565 0.625668 3.37433
        -0.430669 2 3.37077
        0.71866 2 3.28134
        2 2 3.27808
        3.28134 2 3.28134
        4.43067 2 3.37077
        -0.42565 3.37433 3.37433
        0.715476 3.28452 3.28452
        2 3.28134 3.28134
        3.28452 3.28452 3.28452
        4.42565 3.37433 3.37433
        -0.516094 4.51609 3.44199
        0.625668 4.42565 3.37433
        2 4.43067 3.37077
        3.37433 4.42565 3.37433
        4.51609 4.51609 3.44199
        -0.589316 -0.589316 4.58932
        0.55801 -0.516094 4.51609
        2 -0.520706 4.52071
        3.44199 -0.516094 4.51609
        4.58932 -0.589316 4.58932
        -0.516094 0.55801 4.51609
        0.625668 0.625668 4.42565
        2 0.629233 4.43067
        3.37433 0.625668 4.42565
        4.51609 0.55801 4.51609
        -0.520706 2 4.52071
        0.629233 2 4.43067
        2 2 4.43511
        3.37077 2 4.43067
        4.52071 2 4.52071
        -0.516094 3.44199 4.51609
        0.625668 3.37433 4.42565
        2 3.37077 4.43067
        3.37433 3.37433 4.42565
        4.51609 3.44199 4.51609
        -0.589316 4.58932 4.58932
        0.55801 4.51609 4.51609
        2 4.52071 4.52071
        3.44199 4.51609 4.51609
        4.58932 4.58932 4.58932
      </DataArray>
    </Points>
    <Cells>
      <DataArray type="Int32" Name="connectivity" format="ascii"/>
      <DataArray type="Int32" Name="offsets" format="ascii"/>
      <DataArray type="UInt8" Name="types" format="ascii"/>
    </Cells>
  </Piece>
  </UnstructuredGrid>
</VTKFile>
