<VTKFile type="UnstructuredGrid" version="0.1">
  <UnstructuredGrid>
  <Piece NumberOfPoints="125" NumberOfCells="0">
    <PointData Scalars="Radius">
      <DataArray type="Float64" Name="Radius" format="ascii">
        0.5
        0.5
        0.5
        0.5
        0.5
        0.5
        0.5
        0.5
        0.5
        0.5
        0.5
        0.5
        0.5
        0.5
        0.5
        0.5
        0.5
        0.5
        0.5
        0.5
        0.5
        0.5
        0.5
        0.5
        0.5
        0.5
        0.5
        0.5
        0.5
        0.5
        0.5
        0.5
        0.5
        0.5
        0.5
        0.5
        0.5
        0.5
        0.5
        0.5
        0.5
        0.5
        0.5
        0.5
        0.5
        0.5
        0.5
        0.5
        0.5
        0.5
        0.5
        0.5
        0.5
        0.5
        0.5
        0.5
        0.5
        0.5
        0.5
        0.5
        0.5
        0.5
        0.5
        0.5
        0.5
        0.5
        0.5
        0.5
        0.5
        0.5
        0.5
        0.5
        0.5
        0.5
        0.5
        0.5
        0.5
        0.5
        0.5
        0.5
        0.5
        0.5
        0.5
        0.5
        0.5
        0.5
        0.5
        0.5
        0.5
        0.5
        0.5
        0.5
        0.5
        0.5
        0.5
        0.5
        0.5
        0.5
        0.5
        0.5
        0.5
        0.5
        0.5
        0.5
        0.5
        0.5
        0.5
        0.5
        0.5
        0.5
        0.5
        0.5
        0.5
        0.5
        0.5
        0.5
        0.5
        0.5
        0.5
        0.5
        0.5
        0.5
        0.5
        0.5
        0.5
      </DataArray>
    </PointData>
    <Points>
      <DataArray type="Float64" NumberOfComponents="3" format="ascii">
        -0.765692 -0.765692 -0.765692
        0.291596 -0.57642 -0.57642
        2 -0.606884 -0.606884
        3.7084 -0.57642 -0.57642
        4.76569 -0.765692 -0.765692
        -0.57642 0.291596 -0.57642
        0.469164 0.469164 -0.332134
        2 0.464336 -0.374309
        3.53084 0.469164 -0.332134
        4.57642 0.291596 -0.57642
        -0.606884 2 -0.606884
        0.464336 2 -0.374309
        2 2 -0.404756
        3.53566 2 -0.374309
        4.60688 2 -0.606884
        -0.57642 3.7084 -0.57642
        0.469164 3.53084 -0.332134
        2 3.53566 -0.374309
        3.53084 3.53084 -0.332134
        4.57642 3.7084 -0.57642
        -0.765692 4.76569 -0.765692
        0.291596 4.57642 -0.57642
        2 4.60688 -0.606884
        3.7084 4.57642 -0.57642
        4.76569 4.76569 -0.765692
        -0.57642 -0.57642 0.291596
        0.469164 -0.332134 0.469164
        2 -0.374309 0.464336
        3.53084 -0.332134 0.469164
        4.57642 -0.57642 0.291596
        -0.332134 0.469164 0.469164
        0.705894 0.705894 0.705894
        2 0.698394 0.698394
        3.29411 0.705894 0.705894
        4.33213 0.469164 0.469164
        -0.374309 2 0.464336
        0.698394 2 0.698394
        2 2 0.699691
        3.30161 2 0.698394
        4.37431 2 0.464336
        -0.332134 3.53084 0.469164
        0.705894 3.29411 0.705894
        2 3.30161 0.698394
        3.29411 3.29411 0.705894
        4.33213 3.53084 0.469164
        -0.57642 4.57642 0.291596
        0.469164 4.33213 0.469164
        2 4.37431 0.464336
        3.53084 4.33213 0.469164
        4.57642 4.57642 0.291596
        -0.606884 -0.606884 2
        0.464336 -0.374309 2
        2 -0.404756 2
        3.53566 -0.374309 2
        4.60688 -0.606884 2
        -0.374309 0.464336 2
        0.698394 0.698394 2
        2 0.699691 2
        3.30161 0.698394 2
        4.37431 0.464336 2
        -0.404756 2 2
        0.699691 2 2
        2 2 2
        3.30031 2 2
        4.40476 2 2
        -0.374309 3.53566 2
        0.698394 3.30161 2
        2 3.30031 2
        3.30161 3.30161 2
        4.37431 3.53566 2
        -0.606884 4.60688 2
        0.464336 4.37431 2
        2 4.40476 2
        3.53566 4.37431 2
        4.60688 4.60688 2
        -0.57642 -0.57642 3.7084
        0.469164 -0.332134 3.53084
        2 -0.374309 3.53566
        3.53084 -0.332134 3.53084
        4.57642 -0.57642 3.7084
        -0.332134 0.469164 3.53084
        0.705894 0.705894 3.29411
        2 0.698394 3.30161
        3.29411 0.705894 3.29411
        4.33213 0.469164 3.53084
        -0.374309 2 3.53566
        0.698394 2 3.30161
        2 2 3.30031
        3.30161 2 3.30161
        4.37431 2 3.53566
        -0.332134 3.53084 3.53084
        0.705894 3.29411 3.29411
        2 3.30161 3.30161
        3.29411 3.29411 3.29411
        4.33213 3.53084 3.53084
        -0.57642 4.57642 3.7084
        0.469164 4.33213 3.53084
        2 4.37431 3.53566
        3.53084 4.33213 3.53084
        4.57642 4.57642 3.7084
        -0.765692 -0.765692 4.76569
        0.291596 -0.57642 4.57642
        2 -0.606884 4.60688
        3.7084 -0.57642 4.57642
        4.76569 -0.765692 4.76569
        -0.57642 0.291596 4.57642
        0.469164 0.469164 4.33213
        2 0.464336 4.37431
        3.53084 0.469164 4.33213
        4.57642 0.291596 4.57642
        -0.606884 2 4.60688
        0.464336 2 4.37431
        2 2 4.40476
        3.53566 2 4.37431
        4.60688 2 4.60688
        -0.57642 3.7084 4.57642
        0.469164 3.53084 4.33213
        2 3.53566 4.37431
        3.53084 3.53084 4.33213
        4.57642 3.7084 4.57642
        -0.765692 4.76569 4.76569
        0.291596 4.57642 4.57642
        2 4.60688 4.60688
        3.7084 4.57642 4.57642
        4.76569 4.76569 4.76569
      </DataArray>
    </Points>
    <Cells>
      <DataArray type="Int32" Name="connectivity" format="ascii"/>
      <DataArray type="Int32" Name="offsets" format="ascii"/>
      <DataArray type="UInt8" Name="types" format="ascii"/>
    </Cells>
  </Piece>
  </UnstructuredGrid>
</VTKFile>
