<VTKFile type="UnstructuredGrid" version="0.1">
  <UnstructuredGrid>
  <Piece NumberOfPoints="125" NumberOfCells="0">
    <PointData Scalars="Radius">
      <DataArray type="Float64" Name="Radius" format="ascii">
        0.5
        0.5
        0.5
        0.5
        0.5
        0.5
        0.5
        0.5
        0.5
        0.5
        0.5
        0.5
        0.5
        0.5
        0.5
        0.5
        0.5
        0.5
        0.5
        0.5
        0.5
        0.5
        0.5
        0.5
        0.5
        0.5
        0.5
        0.5
        0.5
        0.5
        0.5
        0.5
        0.5
        0.5
        0.5
        0.5
        0.5
        0.5
        0.5
        0.5
        0.5
        0.5
        0.5
        0.5
        0.5
        0.5
        0.5
        0.5
        0.5
        0.5
        0.5
        0.5
        0.5
        0.5
        0.5
        0.5
        0.5
        0.5
        0.5
        0.5
        0.5
        0.5
        0.5
        0.5
        0.5
        0.5
        0.5
        0.5
        0.5
        0.5
        0.5
        0.5
        0.5
        0.5
        0.5
        0.5
        0.5
        0.5
        0.5
        0.5
        0.5
        0.5
        0.5
        0.5
        0.5
        0.5
        0.5
        0.5
        0.5
        0.5
        0.5
        0.5
        0.5
        0.5
        0.5
        0.5
        0.5
        0.5
        0.5
        0.5
        0.5
        0.5
        0.5
        0.5
        0.5
        0.5
        0.5
        0.5
        0.5
        0.5
        0.5
        0.5
        0.5
        0.5
        0.5
        0.5
        0.5
        0.5
        0.5
        0.5
        0.5
        0.5
        0.5
        0.5
        0.5
      </DataArray>
    </PointData>
    <Points>
      <DataArray type="Float64" NumberOfComponents="3" format="ascii">
        -0.8984 -0.8984 -0.8984
        0.17004 -0.600159 -0.600159
        2 -0.662297 -0.662297
        3.82996 -0.600159 -0.600159
        4.8984 -0.8984 -0.8984
        -0.600159 0.17004 -0.600159
        0.467963 0.467963 -0.278775
        2 0.426311 -0.313379
        3.53204 0.467963 -0.278775
        4.60016 0.17004 -0.600159
        -0.662297 2 -0.662297
        0.426311 2 -0.313379
        2 2 -0.363372
        3.57369 2 -0.313379
        4.6623 2 -0.662297
        -0.600159 3.82996 -0.600159
        0.467963 3.53204 -0.278775
        2 3.57369 -0.313379
        3.53204 3.53204 -0.278775
        4.60016 3.82996 -0.600159
        -0.8984 4.8984 -0.8984
        0.17004 4.60016 -0.600159
        2 4.6623 -0.662297
        3.82996 4.60016 -0.600159
        4.8984 4.8984 -0.8984
        -0.600159 -0.600159 0.17004
        0.467963 -0.278775 0.467963
        2 -0.313379 0.426311
        3.53204 -0.278775 0.467963
        4.60016 -0.600159 0.17004
        -0.278775 0.467963 0.467963
        0.800338 0.800338 0.800338
        2 0.772293 0.772293
        3.19966 0.800338 0.800338
        4.27877 0.467963 0.467963
        -0.313379 2 0.426311
        0.772293 2 0.772293
        2 2 0.76175
        3.22771 2 0.772293
        4.31338 2 0.426311
        -0.278775 3.53204 0.467963
        0.800338 3.19966 0.800338
        2 3.22771 0.772293
        3.19966 3.19966 0.800338
        4.27877 3.53204 0.467963
        -0.600159 4.60016 0.17004
        0.467963 4.27877 0.467963
        2 4.31338 0.426311
        3.53204 4.27877 0.467963
        4.60016 4.60016 0.17004
        -0.662297 -0.662297 2
        0.426311 -0.313379 2
        2 -0.363372 2
        3.57369 -0.313379 2
        4.6623 -0.662297 2
        -0.313379 0.426311 2
        0.772293 0.772293 2
        2 0.76175 2
        3.22771 0.772293 2
        4.31338 0.426311 2
        -0.363372 2 2
        0.76175 2 2
        2 2 2
        3.23825 2 2
        4.36337 2 2
        -0.313379 3.57369 2
        0.772293 3.22771 2
        2 3.23825 2
        3.22771 3.22771 2
        4.31338 3.57369 2
        -0.662297 4.6623 2
        0.426311 4.31338 2
        2 4.36337 2
        3.57369 4.31338 2
        4.6623 4.6623 2
        -0.600159 -0.600159 3.82996
        0.467963 -0.278775 3.53204
        2 -0.313379 3.57369
        3.53204 -0.278775 3.53204
        4.60016 -0.600159 3.82996
        -0.278775 0.467963 3.53204
        0.800338 0.800338 3.19966
        2 0.772293 3.22771
        3.19966 0.800338 3.19966
        4.27877 0.467963 3.53204
        -0.313379 2 3.57369
        0.772293 2 3.22771
        2 2 3.23825
        3.22771 2 3.22771
        4.31338 2 3.57369
        -0.278775 3.53204 3.53204
        0.800338 3.19966 3.19966
        2 3.22771 3.22771
        3.19966 3.19966 3.19966
        4.27877 3.53204 3.53204
        -0.600159 4.60016 3.82996
        0.467963 4.27877 3.53204
        2 4.31338 3.57369
        3.53204 4.27877 3.53204
        4.60016 4.60016 3.82996
        -0.8984 -0.8984 4.8984
        0.17004 -0.600159 4.60016
        2 -0.662297 4.6623
        3.82996 -0.600159 4.60016
        4.8984 -0.8984 4.8984
        -0.600159 0.17004 4.60016
        0.467963 0.467963 4.27877
        2 0.426311 4.31338
        3.53204 0.467963 4.27877
        4.60016 0.17004 4.60016
        -0.662297 2 4.6623
        0.426311 2 4.31338
        2 2 4.36337
        3.57369 2 4.31338
        4.6623 2 4.6623
        -0.600159 3.82996 4.60016
        0.467963 3.53204 4.27877
        2 3.57369 4.31338
        3.53204 3.53204 4.27877
        4.60016 3.82996 4.60016
        -0.8984 4.8984 4.8984
        0.17004 4.60016 4.60016
        2 4.6623 4.6623
        3.82996 4.60016 4.60016
        4.8984 4.8984 4.8984
      </DataArray>
    </Points>
    <Cells>
      <DataArray type="Int32" Name="connectivity" format="ascii"/>
      <DataArray type="Int32" Name="offsets" format="ascii"/>
      <DataArray type="UInt8" Name="types" format="ascii"/>
    </Cells>
  </Piece>
  </UnstructuredGrid>
</VTKFile>
