<VTKFile type="UnstructuredGrid" version="0.1">
  <UnstructuredGrid>
  <Piece NumberOfPoints="125" NumberOfCells="0">
    <PointData Scalars="Radius">
      <DataArray type="Float64" Name="Radius" format="ascii">
        0.5
        0.5
        0.5
        0.5
        0.5
        0.5
        0.5
        0.5
        0.5
        0.5
        0.5
        0.5
        0.5
        0.5
        0.5
        0.5
        0.5
        0.5
        0.5
        0.5
        0.5
        0.5
        0.5
        0.5
        0.5
        0.5
        0.5
        0.5
        0.5
        0.5
        0.5
        0.5
        0.5
        0.5
        0.5
        0.5
        0.5
        0.5
        0.5
        0.5
        0.5
        0.5
        0.5
        0.5
        0.5
        0.5
        0.5
        0.5
        0.5
        0.5
        0.5
        0.5
        0.5
        0.5
        0.5
        0.5
        0.5
        0.5
        0.5
        0.5
        0.5
        0.5
        0.5
        0.5
        0.5
        0.5
        0.5
        0.5
        0.5
        0.5
        0.5
        0.5
        0.5
        0.5
        0.5
        0.5
        0.5
        0.5
        0.5
        0.5
        0.5
        0.5
        0.5
        0.5
        0.5
        0.5
        0.5
        0.5
        0.5
        0.5
        0.5
        0.5
        0.5
        0.5
        0.5
        0.5
        0.5
        0.5
        0.5
        0.5
        0.5
        0.5
        0.5
        0.5
        0.5
        0.5
        0.5
        0.5
        0.5
        0.5
        0.5
        0.5
        0.5
        0.5
        0.5
        0.5
        0.5
        0.5
        0.5
        0.5
        0.5
        0.5
        0.5
        0.5
        0.5
      </DataArray>
    </PointData>
    <Points>
      <DataArray type="Float64" NumberOfComponents="3" format="ascii">
        -0.242458 -0.242458 -0.242458
        0.873805 -0.221661 -0.221661
        2 -0.220276 -0.220276
        3.1262 -0.221661 -0.221661
        4.24246 -0.242458 -0.242458
        -0.221661 0.873805 -0.221661
        0.882769 0.882769 -0.196829
        2 0.883162 -0.195284
        3.11723 0.882769 -0.196829
        4.22166 0.873805 -0.221661
        -0.220276 2 -0.220276
        0.883162 2 -0.195284
        2 2 -0.193761
        3.11684 2 -0.195284
        4.22028 2 -0.220276
        -0.221661 3.1262 -0.221661
        0.882769 3.11723 -0.196829
        2 3.11684 -0.195284
        3.11723 3.11723 -0.196829
        4.22166 3.1262 -0.221661
        -0.242458 4.24246 -0.242458
        0.873805 4.22166 -0.221661
        2 4.22028 -0.220276
        3.1262 4.22166 -0.221661
        4.24246 4.24246 -0.242458
        -0.221661 -0.221661 0.873805
        0.882769 -0.196829 0.882769
        2 -0.195284 0.883162
        3.11723 -0.196829 0.882769
        4.22166 -0.221661 0.873805
        -0.196829 0.882769 0.882769
        0.894286 0.894286 0.894286
        2 0.894803 0.894803
        3.10571 0.894286 0.894286
        4.19683 0.882769 0.882769
        -0.195284 2 0.883162
        0.894803 2 0.894803
        2 2 0.895331
        3.1052 2 0.894803
        4.19528 2 0.883162
        -0.196829 3.11723 0.882769
        0.894286 3.10571 0.894286
        2 3.1052 0.894803
        3.10571 3.10571 0.894286
        4.19683 3.11723 0.882769
        -0.221661 4.22166 0.873805
        0.882769 4.19683 0.882769
        2 4.19528 0.883162
        3.11723 4.19683 0.882769
        4.22166 4.22166 0.873805
        -0.220276 -0.220276 2
        0.883162 -0.195284 2
        2 -0.193761 2
        3.11684 -0.195284 2
        4.22028 -0.220276 2
        -0.195284 0.883162 2
        0.894803 0.894803 2
        2 0.895331 2
        3.1052 0.894803 2
        4.19528 0.883162 2
        -0.193761 2 2
        0.895331 2 2
        2 2 2
        3.10467 2 2
        4.19376 2 2
        -0.195284 3.11684 2
        0.894803 3.1052 2
        2 3.10467 2
        3.1052 3.1052 2
        4.19528 3.11684 2
        -0.220276 4.22028 2
        0.883162 4.19528 2
        2 4.19376 2
        3.11684 4.19528 2
        4.22028 4.22028 2
        -0.221661 -0.221661 3.1262
        0.882769 -0.196829 3.11723
        2 -0.195284 3.11684
        3.11723 -0.196829 3.11723
        4.22166 -0.221661 3.1262
        -0.196829 0.882769 3.11723
        0.894286 0.894286 3.10571
        2 0.894803 3.1052
        3.10571 0.894286 3.10571
        4.19683 0.882769 3.11723
        -0.195284 2 3.11684
        0.894803 2 3.1052
        2 2 3.10467
        3.1052 2 3.1052
        4.19528 2 3.11684
        -0.196829 3.11723 3.11723
        0.894286 3.10571 3.10571
        2 3.1052 3.1052
        3.10571 3.10571 3.10571
        4.19683 3.11723 3.11723
        -0.221661 4.22166 3.1262
        0.882769 4.19683 3.11723
        2 4.19528 3.11684
        3.11723 4.19683 3.11723
        4.22166 4.22166 3.1262
        -0.242458 -0.242458 4.24246
        0.873805 -0.221661 4.22166
        2 -0.220276 4.22028
        3.1262 -0.221661 4.22166
        4.24246 -0.242458 4.24246
        -0.221661 0.873805 4.22166
        0.882769 0.882769 4.19683
        2 0.883162 4.19528
        3.11723 0.882769 4.19683
        4.22166 0.873805 4.22166
        -0.220276 2 4.22028
        0.883162 2 4.19528
        2 2 4.19376
        3.11684 2 4.19528
        4.22028 2 4.22028
        -0.221661 3.1262 4.22166
        0.882769 3.11723 4.19683
        2 3.11684 4.19528
        3.11723 3.11723 4.19683
        4.22166 3.1262 4.22166
        -0.242458 4.24246 4.24246
        0.873805 4.22166 4.22166
        2 4.22028 4.22028
        3.1262 4.22166 4.22166
        4.24246 4.24246 4.24246
      </DataArray>
    </Points>
    <Cells>
      <DataArray type="Int32" Name="connectivity" format="ascii"/>
      <DataArray type="Int32" Name="offsets" format="ascii"/>
      <DataArray type="UInt8" Name="types" format="ascii"/>
    </Cells>
  </Piece>
  </UnstructuredGrid>
</VTKFile>
