<VTKFile type="UnstructuredGrid" version="0.1">
  <UnstructuredGrid>
  <Piece NumberOfPoints="125" NumberOfCells="0">
    <PointData Scalars="Radius">
      <DataArray type="Float64" Name="Radius" format="ascii">
        0.5
        0.5
        0.5
        0.5
        0.5
        0.5
        0.5
        0.5
        0.5
        0.5
        0.5
        0.5
        0.5
        0.5
        0.5
        0.5
        0.5
        0.5
        0.5
        0.5
        0.5
        0.5
        0.5
        0.5
        0.5
        0.5
        0.5
        0.5
        0.5
        0.5
        0.5
        0.5
        0.5
        0.5
        0.5
        0.5
        0.5
        0.5
        0.5
        0.5
        0.5
        0.5
        0.5
        0.5
        0.5
        0.5
        0.5
        0.5
        0.5
        0.5
        0.5
        0.5
        0.5
        0.5
        0.5
        0.5
        0.5
        0.5
        0.5
        0.5
        0.5
        0.5
        0.5
        0.5
        0.5
        0.5
        0.5
        0.5
        0.5
        0.5
        0.5
        0.5
        0.5
        0.5
        0.5
        0.5
        0.5
        0.5
        0.5
        0.5
        0.5
        0.5
        0.5
        0.5
        0.5
        0.5
        0.5
        0.5
        0.5
        0.5
        0.5
        0.5
        0.5
        0.5
        0.5
        0.5
        0.5
        0.5
        0.5
        0.5
        0.5
        0.5
        0.5
        0.5
        0.5
        0.5
        0.5
        0.5
        0.5
        0.5
        0.5
        0.5
        0.5
        0.5
        0.5
        0.5
        0.5
        0.5
        0.5
        0.5
        0.5
        0.5
        0.5
        0.5
        0.5
      </DataArray>
    </PointData>
    <Points>
      <DataArray type="Float64" NumberOfComponents="3" format="ascii">
        -1.0576 -1.0576 -1.0576
        0.138595 -0.64701 -0.64701
        2.0012 -0.548892 -0.548892
        3.76537 -0.602304 -0.602304
        5.23615 -1.23615 -1.23615
        -0.64701 0.138595 -0.64701
        0.559064 0.559064 -0.190828
        2.00026 0.667061 -0.123082
        3.44273 0.557263 -0.19179
        4.6023 0.23462 -0.602304
        -0.548892 2.0012 -0.548892
        0.667061 2.00026 -0.123082
        2 2 -0.0233636
        3.33308 2 -0.123117
        4.54884 2 -0.548836
        -0.602304 3.76537 -0.602304
        0.557263 3.44273 -0.19179
        2 3.33308 -0.123117
        3.44274 3.44274 -0.191791
        4.6023 3.76538 -0.602304
        -1.23615 5.23615 -1.23615
        0.23462 4.6023 -0.602304
        2 4.54884 -0.548836
        3.76538 4.6023 -0.602304
        5.23615 5.23615 -1.23615
        -0.64701 -0.64701 0.138595
        0.559064 -0.190828 0.559064
        2.00026 -0.123082 0.667061
        3.44273 -0.19179 0.557263
        4.6023 -0.602304 0.23462
        -0.190828 0.559064 0.559064
        0.826178 0.826178 0.826178
        2.00007 0.875964 0.875964
        3.17412 0.82589 0.82589
        4.19179 0.557263 0.557263
        -0.123082 2.00026 0.667061
        0.875964 2.00007 0.875964
        2 2 1.0293
        3.12405 2 0.87595
        4.12312 2 0.666923
        -0.19179 3.44273 0.557263
        0.82589 3.17412 0.82589
        2 3.12405 0.87595
        3.17411 3.17411 0.825892
        4.19179 3.44274 0.557264
        -0.602304 4.6023 0.23462
        0.557263 4.19179 0.557263
        2 4.12312 0.666923
        3.44274 4.19179 0.557264
        4.6023 4.6023 0.23462
        -0.548892 -0.548892 2.0012
        0.667061 -0.123082 2.00026
        2 -0.0233636 2
        3.33308 -0.123117 2
        4.54884 -0.548836 2
        -0.123082 0.667061 2.00026
        0.875964 0.875964 2.00007
        2 1.0293 2
        3.12405 0.87595 2
        4.12312 0.666923 2
        -0.0233636 2 2
        1.0293 2 2
        2 2 2
        2.9707 2 2
        4.02336 2 2
        -0.123117 3.33308 2
        0.87595 3.12405 2
        2 2.9707 2
        3.12405 3.12405 2
        4.12312 3.33308 2
        -0.548836 4.54884 2
        0.666923 4.12312 2
        2 4.02336 2
        3.33308 4.12312 2
        4.54884 4.54884 2
        -0.602304 -0.602304 3.76537
        0.557263 -0.19179 3.44273
        2 -0.123117 3.33308
        3.44274 -0.191791 3.44274
        4.6023 -0.602304 3.76538
        -0.19179 0.557263 3.44273
        0.82589 0.82589 3.17412
        2 0.87595 3.12405
        3.17411 0.825892 3.17411
        4.19179 0.557264 3.44274
        -0.123117 2 3.33308
        0.87595 2 3.12405
        2 2 2.9707
        3.12405 2 3.12405
        4.12312 2 3.33308
        -0.191791 3.44274 3.44274
        0.825892 3.17411 3.17411
        2 3.12405 3.12405
        3.17411 3.17411 3.17411
        4.19179 3.44274 3.44274
        -0.602304 4.6023 3.76538
        0.557264 4.19179 3.44274
        2 4.12312 3.33308
        3.44274 4.19179 3.44274
        4.6023 4.6023 3.76538
        -1.23615 -1.23615 5.23615
        0.23462 -0.602304 4.6023
        2 -0.548836 4.54884
        3.76538 -0.602304 4.6023
        5.23615 -1.23615 5.23615
        -0.602304 0.23462 4.6023
        0.557263 0.557263 4.19179
        2 0.666923 4.12312
        3.44274 0.557264 4.19179
        4.6023 0.23462 4.6023
        -0.548836 2 4.54884
        0.666923 2 4.12312
        2 2 4.02336
        3.33308 2 4.12312
        4.54884 2 4.54884
        -0.602304 3.76538 4.6023
        0.557264 3.44274 4.19179
        2 3.33308 4.12312
        3.44274 3.44274 4.19179
        4.6023 3.76538 4.6023
        -1.23615 5.23615 5.23615
        0.23462 4.6023 4.6023
        2 4.54884 4.54884
        3.76538 4.6023 4.6023
        5.23615 5.23615 5.23615
      </DataArray>
    </Points>
    <Cells>
      <DataArray type="Int32" Name="connectivity" format="ascii"/>
      <DataArray type="Int32" Name="offsets" format="ascii"/>
      <DataArray type="UInt8" Name="types" format="ascii"/>
    </Cells>
  </Piece>
  </UnstructuredGrid>
</VTKFile>
