<VTKFile type="UnstructuredGrid" version="0.1">
  <UnstructuredGrid>
  <Piece NumberOfPoints="125" NumberOfCells="0">
    <PointData Scalars="Radius">
      <DataArray type="Float64" Name="Radius" format="ascii">
        0.5
        0.5
        0.5
        0.5
        0.5
        0.5
        0.5
        0.5
        0.5
        0.5
        0.5
        0.5
        0.5
        0.5
        0.5
        0.5
        0.5
        0.5
        0.5
        0.5
        0.5
        0.5
        0.5
        0.5
        0.5
        0.5
        0.5
        0.5
        0.5
        0.5
        0.5
        0.5
        0.5
        0.5
        0.5
        0.5
        0.5
        0.5
        0.5
        0.5
        0.5
        0.5
        0.5
        0.5
        0.5
        0.5
        0.5
        0.5
        0.5
        0.5
        0.5
        0.5
        0.5
        0.5
        0.5
        0.5
        0.5
        0.5
        0.5
        0.5
        0.5
        0.5
        0.5
        0.5
        0.5
        0.5
        0.5
        0.5
        0.5
        0.5
        0.5
        0.5
        0.5
        0.5
        0.5
        0.5
        0.5
        0.5
        0.5
        0.5
        0.5
        0.5
        0.5
        0.5
        0.5
        0.5
        0.5
        0.5
        0.5
        0.5
        0.5
        0.5
        0.5
        0.5
        0.5
        0.5
        0.5
        0.5
        0.5
        0.5
        0.5
        0.5
        0.5
        0.5
        0.5
        0.5
        0.5
        0.5
        0.5
        0.5
        0.5
        0.5
        0.5
        0.5
        0.5
        0.5
        0.5
        0.5
        0.5
        0.5
        0.5
        0.5
        0.5
        0.5
        0.5
      </DataArray>
    </PointData>
    <Points>
      <DataArray type="Float64" NumberOfComponents="3" format="ascii">
        -0.132152 -0.132152 -0.132152
        0.950885 -0.12161 -0.12161
        2 -0.120927 -0.120927
        3.04911 -0.12161 -0.12161
        4.13215 -0.132152 -0.132152
        -0.12161 0.950885 -0.12161
        0.954509 0.954509 -0.108866
        2 0.954653 -0.108047
        3.04549 0.954509 -0.108866
        4.12161 0.950885 -0.12161
        -0.120927 2 -0.120927
        0.954653 2 -0.108047
        2 2 -0.10722
        3.04535 2 -0.108047
        4.12093 2 -0.120927
        -0.12161 3.04911 -0.12161
        0.954509 3.04549 -0.108866
        2 3.04535 -0.108047
        3.04549 3.04549 -0.108866
        4.12161 3.04911 -0.12161
        -0.132152 4.13215 -0.132152
        0.950885 4.12161 -0.12161
        2 4.12093 -0.120927
        3.04911 4.12161 -0.12161
        4.13215 4.13215 -0.132152
        -0.12161 -0.12161 0.950885
        0.954509 -0.108866 0.954509
        2 -0.108047 0.954653
        3.04549 -0.108866 0.954509
        4.12161 -0.12161 0.950885
        -0.108866 0.954509 0.954509
        0.959055 0.959055 0.959055
        2 0.959258 0.959258
        3.04095 0.959055 0.959055
        4.10887 0.954509 0.954509
        -0.108047 2 0.954653
        0.959258 2 0.959258
        2 2 0.959459
        3.04074 2 0.959258
        4.10805 2 0.954653
        -0.108866 3.04549 0.954509
        0.959055 3.04095 0.959055
        2 3.04074 0.959258
        3.04095 3.04095 0.959055
        4.10887 3.04549 0.954509
        -0.12161 4.12161 0.950885
        0.954509 4.10887 0.954509
        2 4.10805 0.954653
        3.04549 4.10887 0.954509
        4.12161 4.12161 0.950885
        -0.120927 -0.120927 2
        0.954653 -0.108047 2
        2 -0.10722 2
        3.04535 -0.108047 2
        4.12093 -0.120927 2
        -0.108047 0.954653 2
        0.959258 0.959258 2
        2 0.959459 2
        3.04074 0.959258 2
        4.10805 0.954653 2
        -0.10722 2 2
        0.959459 2 2
        2 2 2
        3.04054 2 2
        4.10722 2 2
        -0.108047 3.04535 2
        0.959258 3.04074 2
        2 3.04054 2
        3.04074 3.04074 2
        4.10805 3.04535 2
        -0.120927 4.12093 2
        0.954653 4.10805 2
        2 4.10722 2
        3.04535 4.10805 2
        4.12093 4.12093 2
        -0.12161 -0.12161 3.04911
        0.954509 -0.108866 3.04549
        2 -0.108047 3.04535
        3.04549 -0.108866 3.04549
        4.12161 -0.12161 3.04911
        -0.108866 0.954509 3.04549
        0.959055 0.959055 3.04095
        2 0.959258 3.04074
        3.04095 0.959055 3.04095
        4.10887 0.954509 3.04549
        -0.108047 2 3.04535
        0.959258 2 3.04074
        2 2 3.04054
        3.04074 2 3.04074
        4.10805 2 3.04535
        -0.108866 3.04549 3.04549
        0.959055 3.04095 3.04095
        2 3.04074 3.04074
        3.04095 3.04095 3.04095
        4.10887 3.04549 3.04549
        -0.12161 4.12161 3.04911
        0.954509 4.10887 3.04549
        2 4.10805 3.04535
        3.04549 4.10887 3.04549
        4.12161 4.12161 3.04911
        -0.132152 -0.132152 4.13215
        0.950885 -0.12161 4.12161
        2 -0.120927 4.12093
        3.04911 -0.12161 4.12161
        4.13215 -0.132152 4.13215
        -0.12161 0.950885 4.12161
        0.954509 0.954509 4.10887
        2 0.954653 4.10805
        3.04549 0.954509 4.10887
        4.12161 0.950885 4.12161
        -0.120927 2 4.12093
        0.954653 2 4.10805
        2 2 4.10722
        3.04535 2 4.10805
        4.12093 2 4.12093
        -0.12161 3.04911 4.12161
        0.954509 3.04549 4.10887
        2 3.04535 4.10805
        3.04549 3.04549 4.10887
        4.12161 3.04911 4.12161
        -0.132152 4.13215 4.13215
        0.950885 4.12161 4.12161
        2 4.12093 4.12093
        3.04911 4.12161 4.12161
        4.13215 4.13215 4.13215
      </DataArray>
    </Points>
    <Cells>
      <DataArray type="Int32" Name="connectivity" format="ascii"/>
      <DataArray type="Int32" Name="offsets" format="ascii"/>
      <DataArray type="UInt8" Name="types" format="ascii"/>
    </Cells>
  </Piece>
  </UnstructuredGrid>
</VTKFile>
