<VTKFile type="UnstructuredGrid" version="0.1">
  <UnstructuredGrid>
  <Piece NumberOfPoints="125" NumberOfCells="0">
    <PointData Scalars="Radius">
      <DataArray type="Float64" Name="Radius" format="ascii">
        0.5
        0.5
        0.5
        0.5
        0.5
        0.5
        0.5
        0.5
        0.5
        0.5
        0.5
        0.5
        0.5
        0.5
        0.5
        0.5
        0.5
        0.5
        0.5
        0.5
        0.5
        0.5
        0.5
        0.5
        0.5
        0.5
        0.5
        0.5
        0.5
        0.5
        0.5
        0.5
        0.5
        0.5
        0.5
        0.5
        0.5
        0.5
        0.5
        0.5
        0.5
        0.5
        0.5
        0.5
        0.5
        0.5
        0.5
        0.5
        0.5
        0.5
        0.5
        0.5
        0.5
        0.5
        0.5
        0.5
        0.5
        0.5
        0.5
        0.5
        0.5
        0.5
        0.5
        0.5
        0.5
        0.5
        0.5
        0.5
        0.5
        0.5
        0.5
        0.5
        0.5
        0.5
        0.5
        0.5
        0.5
        0.5
        0.5
        0.5
        0.5
        0.5
        0.5
        0.5
        0.5
        0.5
        0.5
        0.5
        0.5
        0.5
        0.5
        0.5
        0.5
        0.5
        0.5
        0.5
        0.5
        0.5
        0.5
        0.5
        0.5
        0.5
        0.5
        0.5
        0.5
        0.5
        0.5
        0.5
        0.5
        0.5
        0.5
        0.5
        0.5
        0.5
        0.5
        0.5
        0.5
        0.5
        0.5
        0.5
        0.5
        0.5
        0.5
        0.5
        0.5
      </DataArray>
    </PointData>
    <Points>
      <DataArray type="Float64" NumberOfComponents="3" format="ascii">
        -1.04163 -1.04163 -1.04163
        0.147802 -0.666059 -0.666059
        2 -0.692104 -0.692104
        3.8465 -0.664009 -0.664009
        5.05174 -1.05174 -1.05174
        -0.666059 0.147802 -0.666059
        0.534949 0.534949 -0.3063
        2 0.517228 -0.297325
        3.46492 0.535076 -0.306238
        4.66401 0.153496 -0.664009
        -0.692104 2 -0.692104
        0.517228 2 -0.297325
        2 2 -0.22571
        3.48277 2 -0.297325
        4.6921 2 -0.692104
        -0.664009 3.8465 -0.664009
        0.535076 3.46492 -0.306238
        2 3.48277 -0.297325
        3.46492 3.46492 -0.306238
        4.66401 3.8465 -0.664009
        -1.05174 5.05174 -1.05174
        0.153496 4.66401 -0.664009
        2 4.6921 -0.692104
        3.8465 4.66401 -0.664009
        5.05174 5.05174 -1.05174
        -0.666059 -0.666059 0.147802
        0.534949 -0.3063 0.534949
        2 -0.297325 0.517228
        3.46492 -0.306238 0.535076
        4.66401 -0.664009 0.153496
        -0.3063 0.534949 0.534949
        0.934334 0.934334 0.934334
        2 0.925726 0.925726
        3.06567 0.934333 0.934333
        4.30624 0.535076 0.535076
        -0.297325 2 0.517228
        0.925726 2 0.925726
        2 2 0.935028
        3.07427 2 0.925726
        4.29733 2 0.517228
        -0.306238 3.46492 0.535076
        0.934333 3.06567 0.934333
        2 3.07427 0.925726
        3.06567 3.06567 0.934333
        4.30624 3.46492 0.535076
        -0.664009 4.66401 0.153496
        0.535076 4.30624 0.535076
        2 4.29733 0.517228
        3.46492 4.30624 0.535076
        4.66401 4.66401 0.153496
        -0.692104 -0.692104 2
        0.517228 -0.297325 2
        2 -0.22571 2
        3.48277 -0.297325 2
        4.6921 -0.692104 2
        -0.297325 0.517228 2
        0.925726 0.925726 2
        2 0.935028 2
        3.07427 0.925726 2
        4.29733 0.517228 2
        -0.22571 2 2
        0.935028 2 2
        2 2 2
        3.06497 2 2
        4.22571 2 2
        -0.297325 3.48277 2
        0.925726 3.07427 2
        2 3.06497 2
        3.07427 3.07427 2
        4.29733 3.48277 2
        -0.692104 4.6921 2
        0.517228 4.29733 2
        2 4.22571 2
        3.48277 4.29733 2
        4.6921 4.6921 2
        -0.664009 -0.664009 3.8465
        0.535076 -0.306238 3.46492
        2 -0.297325 3.48277
        3.46492 -0.306238 3.46492
        4.66401 -0.664009 3.8465
        -0.306238 0.535076 3.46492
        0.934333 0.934333 3.06567
        2 0.925726 3.07427
        3.06567 0.934333 3.06567
        4.30624 0.535076 3.46492
        -0.297325 2 3.48277
        0.925726 2 3.07427
        2 2 3.06497
        3.07427 2 3.07427
        4.29733 2 3.48277
        -0.306238 3.46492 3.46492
        0.934333 3.06567 3.06567
        2 3.07427 3.07427
        3.06567 3.06567 3.06567
        4.30624 3.46492 3.46492
        -0.664009 4.66401 3.8465
        0.535076 4.30624 3.46492
        2 4.29733 3.48277
        3.46492 4.30624 3.46492
        4.66401 4.66401 3.8465
        -1.05174 -1.05174 5.05174
        0.153496 -0.664009 4.66401
        2 -0.692104 4.6921
        3.8465 -0.664009 4.66401
        5.05174 -1.05174 5.05174
        -0.664009 0.153496 4.66401
        0.535076 0.535076 4.30624
        2 0.517228 4.29733
        3.46492 0.535076 4.30624
        4.66401 0.153496 4.66401
        -0.692104 2 4.6921
        0.517228 2 4.29733
        2 2 4.22571
        3.48277 2 4.29733
        4.6921 2 4.6921
        -0.664009 3.8465 4.66401
        0.535076 3.46492 4.30624
        2 3.48277 4.29733
        3.46492 3.46492 4.30624
        4.66401 3.8465 4.66401
        -1.05174 5.05174 5.05174
        0.153496 4.66401 4.66401
        2 4.6921 4.6921
        3.8465 4.66401 4.66401
        5.05174 5.05174 5.05174
      </DataArray>
    </Points>
    <Cells>
      <DataArray type="Int32" Name="connectivity" format="ascii"/>
      <DataArray type="Int32" Name="offsets" format="ascii"/>
      <DataArray type="UInt8" Name="types" format="ascii"/>
    </Cells>
  </Piece>
  </UnstructuredGrid>
</VTKFile>
