<VTKFile type="UnstructuredGrid" version="0.1">
  <UnstructuredGrid>
  <Piece NumberOfPoints="125" NumberOfCells="0">
    <PointData Scalars="Radius">
      <DataArray type="Float64" Name="Radius" format="ascii">
        0.5
        0.5
        0.5
        0.5
        0.5
        0.5
        0.5
        0.5
        0.5
        0.5
        0.5
        0.5
        0.5
        0.5
        0.5
        0.5
        0.5
        0.5
        0.5
        0.5
        0.5
        0.5
        0.5
        0.5
        0.5
        0.5
        0.5
        0.5
        0.5
        0.5
        0.5
        0.5
        0.5
        0.5
        0.5
        0.5
        0.5
        0.5
        0.5
        0.5
        0.5
        0.5
        0.5
        0.5
        0.5
        0.5
        0.5
        0.5
        0.5
        0.5
        0.5
        0.5
        0.5
        0.5
        0.5
        0.5
        0.5
        0.5
        0.5
        0.5
        0.5
        0.5
        0.5
        0.5
        0.5
        0.5
        0.5
        0.5
        0.5
        0.5
        0.5
        0.5
        0.5
        0.5
        0.5
        0.5
        0.5
        0.5
        0.5
        0.5
        0.5
        0.5
        0.5
        0.5
        0.5
        0.5
        0.5
        0.5
        0.5
        0.5
        0.5
        0.5
        0.5
        0.5
        0.5
        0.5
        0.5
        0.5
        0.5
        0.5
        0.5
        0.5
        0.5
        0.5
        0.5
        0.5
        0.5
        0.5
        0.5
        0.5
        0.5
        0.5
        0.5
        0.5
        0.5
        0.5
        0.5
        0.5
        0.5
        0.5
        0.5
        0.5
        0.5
        0.5
        0.5
      </DataArray>
    </PointData>
    <Points>
      <DataArray type="Float64" NumberOfComponents="3" format="ascii">
        -0.0659266 -0.0659266 -0.0659266
        0.986506 -0.0609183 -0.0609183
        2 -0.0606523 -0.0606523
        3.01349 -0.0609183 -0.0609183
        4.06593 -0.0659266 -0.0659266
        -0.0609183 0.986506 -0.0609183
        0.987774 0.987774 -0.0548684
        2 0.987808 -0.0545343
        3.01223 0.987774 -0.0548684
        4.06092 0.986506 -0.0609183
        -0.0606523 2 -0.0606523
        0.987808 2 -0.0545343
        2 2 -0.0541927
        3.01219 2 -0.0545343
        4.06065 2 -0.0606523
        -0.0609183 3.01349 -0.0609183
        0.987774 3.01223 -0.0548684
        2 3.01219 -0.0545343
        3.01223 3.01223 -0.0548684
        4.06092 3.01349 -0.0609183
        -0.0659266 4.06593 -0.0659266
        0.986506 4.06092 -0.0609183
        2 4.06065 -0.0606523
        3.01349 4.06092 -0.0609183
        4.06593 4.06593 -0.0659266
        -0.0609183 -0.0609183 0.986506
        0.987774 -0.0548684 0.987774
        2 -0.0545343 0.987808
        3.01223 -0.0548684 0.987774
        4.06092 -0.0609183 0.986506
        -0.0548684 0.987774 0.987774
        0.989354 0.989354 0.989354
        2 0.989409 0.989409
        3.01065 0.989354 0.989354
        4.05487 0.987774 0.987774
        -0.0545343 2 0.987808
        0.989409 2 0.989409
        2 2 0.989451
        3.01059 2 0.989409
        4.05453 2 0.987808
        -0.0548684 3.01223 0.987774
        0.989354 3.01065 0.989354
        2 3.01059 0.989409
        3.01065 3.01065 0.989354
        4.05487 3.01223 0.987774
        -0.0609183 4.06092 0.986506
        0.987774 4.05487 0.987774
        2 4.05453 0.987808
        3.01223 4.05487 0.987774
        4.06092 4.06092 0.986506
        -0.0606523 -0.0606523 2
        0.987808 -0.0545343 2
        2 -0.0541927 2
        3.01219 -0.0545343 2
        4.06065 -0.0606523 2
        -0.0545343 0.987808 2
        0.989409 0.989409 2
        2 0.989451 2
        3.01059 0.989409 2
        4.05453 0.987808 2
        -0.0541927 2 2
        0.989451 2 2
        2 2 2
        3.01055 2 2
        4.05419 2 2
        -0.0545343 3.01219 2
        0.989409 3.01059 2
        2 3.01055 2
        3.01059 3.01059 2
        4.05453 3.01219 2
        -0.0606523 4.06065 2
        0.987808 4.05453 2
        2 4.05419 2
        3.01219 4.05453 2
        4.06065 4.06065 2
        -0.0609183 -0.0609183 3.01349
        0.987774 -0.0548684 3.01223
        2 -0.0545343 3.01219
        3.01223 -0.0548684 3.01223
        4.06092 -0.0609183 3.01349
        -0.0548684 0.987774 3.01223
        0.989354 0.989354 3.01065
        2 0.989409 3.01059
        3.01065 0.989354 3.01065
        4.05487 0.987774 3.01223
        -0.0545343 2 3.01219
        0.989409 2 3.01059
        2 2 3.01055
        3.01059 2 3.01059
        4.05453 2 3.01219
        -0.0548684 3.01223 3.01223
        0.989354 3.01065 3.01065
        2 3.01059 3.01059
        3.01065 3.01065 3.01065
        4.05487 3.01223 3.01223
        -0.0609183 4.06092 3.01349
        0.987774 4.05487 3.01223
        2 4.05453 3.01219
        3.01223 4.05487 3.01223
        4.06092 4.06092 3.01349
        -0.0659266 -0.0659266 4.06593
        0.986506 -0.0609183 4.06092
        2 -0.0606523 4.06065
        3.01349 -0.0609183 4.06092
        4.06593 -0.0659266 4.06593
        -0.0609183 0.986506 4.06092
        0.987774 0.987774 4.05487
        2 0.987808 4.05453
        3.01223 0.987774 4.05487
        4.06092 0.986506 4.06092
        -0.0606523 2 4.06065
        0.987808 2 4.05453
        2 2 4.05419
        3.01219 2 4.05453
        4.06065 2 4.06065
        -0.0609183 3.01349 4.06092
        0.987774 3.01223 4.05487
        2 3.01219 4.05453
        3.01223 3.01223 4.05487
        4.06092 3.01349 4.06092
        -0.0659266 4.06593 4.06593
        0.986506 4.06092 4.06092
        2 4.06065 4.06065
        3.01349 4.06092 4.06092
        4.06593 4.06593 4.06593
      </DataArray>
    </Points>
    <Cells>
      <DataArray type="Int32" Name="connectivity" format="ascii"/>
      <DataArray type="Int32" Name="offsets" format="ascii"/>
      <DataArray type="UInt8" Name="types" format="ascii"/>
    </Cells>
  </Piece>
  </UnstructuredGrid>
</VTKFile>
