<VTKFile type="UnstructuredGrid" version="0.1">
  <UnstructuredGrid>
  <Piece NumberOfPoints="125" NumberOfCells="0">
    <PointData Scalars="Radius">
      <DataArray type="Float64" Name="Radius" format="ascii">
        0.5
        0.5
        0.5
        0.5
        0.5
        0.5
        0.5
        0.5
        0.5
        0.5
        0.5
        0.5
        0.5
        0.5
        0.5
        0.5
        0.5
        0.5
        0.5
        0.5
        0.5
        0.5
        0.5
        0.5
        0.5
        0.5
        0.5
        0.5
        0.5
        0.5
        0.5
        0.5
        0.5
        0.5
        0.5
        0.5
        0.5
        0.5
        0.5
        0.5
        0.5
        0.5
        0.5
        0.5
        0.5
        0.5
        0.5
        0.5
        0.5
        0.5
        0.5
        0.5
        0.5
        0.5
        0.5
        0.5
        0.5
        0.5
        0.5
        0.5
        0.5
        0.5
        0.5
        0.5
        0.5
        0.5
        0.5
        0.5
        0.5
        0.5
        0.5
        0.5
        0.5
        0.5
        0.5
        0.5
        0.5
        0.5
        0.5
        0.5
        0.5
        0.5
        0.5
        0.5
        0.5
        0.5
        0.5
        0.5
        0.5
        0.5
        0.5
        0.5
        0.5
        0.5
        0.5
        0.5
        0.5
        0.5
        0.5
        0.5
        0.5
        0.5
        0.5
        0.5
        0.5
        0.5
        0.5
        0.5
        0.5
        0.5
        0.5
        0.5
        0.5
        0.5
        0.5
        0.5
        0.5
        0.5
        0.5
        0.5
        0.5
        0.5
        0.5
        0.5
        0.5
      </DataArray>
    </PointData>
    <Points>
      <DataArray type="Float64" NumberOfComponents="3" format="ascii">
        -1.07439 -1.07439 -1.07439
        0.169084 -0.684785 -0.684785
        2.00022 -0.638806 -0.638806
        3.78686 -0.667071 -0.667071
        5.15419 -1.15419 -1.15419
        -0.684785 0.169084 -0.684785
        0.546353 0.546353 -0.247874
        2.00006 0.607817 -0.232614
        3.4534 0.546596 -0.247606
        4.66707 0.21314 -0.667071
        -0.638806 2.00022 -0.638806
        0.607817 2.00006 -0.232614
        2 2 -0.0296134
        3.39221 2 -0.232619
        4.63879 2 -0.638793
        -0.667071 3.78686 -0.667071
        0.546596 3.4534 -0.247606
        2 3.39221 -0.232619
        3.4534 3.4534 -0.247606
        4.66707 3.78686 -0.667071
        -1.15419 5.15419 -1.15419
        0.21314 4.66707 -0.667071
        2 4.63879 -0.638793
        3.78686 4.66707 -0.667071
        5.15419 5.15419 -1.15419
        -0.684785 -0.684785 0.169084
        0.546353 -0.247874 0.546353
        2.00006 -0.232614 0.607817
        3.4534 -0.247606 0.546596
        4.66707 -0.667071 0.21314
        -0.247874 0.546353 0.546353
        0.911327 0.911327 0.911327
        2.00002 0.941973 0.941973
        3.08873 0.911276 0.911276
        4.24761 0.546596 0.546596
        -0.232614 2.00006 0.607817
        0.941973 2.00002 0.941973
        2 2 0.986232
        3.05803 2 0.941971
        4.23262 2 0.60779
        -0.247606 3.4534 0.546596
        0.911276 3.08873 0.911276
        2 3.05803 0.941971
        3.08872 3.08872 0.911277
        4.24761 3.4534 0.546596
        -0.667071 4.66707 0.21314
        0.546596 4.24761 0.546596
        2 4.23262 0.60779
        3.4534 4.24761 0.546596
        4.66707 4.66707 0.21314
        -0.638806 -0.638806 2.00022
        0.607817 -0.232614 2.00006
        2 -0.0296134 2
        3.39221 -0.232619 2
        4.63879 -0.638793 2
        -0.232614 0.607817 2.00006
        0.941973 0.941973 2.00002
        2 0.986232 2
        3.05803 0.941971 2
        4.23262 0.60779 2
        -0.0296134 2 2
        0.986232 2 2
        2 2 2
        3.01377 2 2
        4.02961 2 2
        -0.232619 3.39221 2
        0.941971 3.05803 2
        2 3.01377 2
        3.05803 3.05803 2
        4.23262 3.39221 2
        -0.638793 4.63879 2
        0.60779 4.23262 2
        2 4.02961 2
        3.39221 4.23262 2
        4.63879 4.63879 2
        -0.667071 -0.667071 3.78686
        0.546596 -0.247606 3.4534
        2 -0.232619 3.39221
        3.4534 -0.247606 3.4534
        4.66707 -0.667071 3.78686
        -0.247606 0.546596 3.4534
        0.911276 0.911276 3.08873
        2 0.941971 3.05803
        3.08872 0.911277 3.08872
        4.24761 0.546596 3.4534
        -0.232619 2 3.39221
        0.941971 2 3.05803
        2 2 3.01377
        3.05803 2 3.05803
        4.23262 2 3.39221
        -0.247606 3.4534 3.4534
        0.911277 3.08872 3.08872
        2 3.05803 3.05803
        3.08872 3.08872 3.08872
        4.24761 3.4534 3.4534
        -0.667071 4.66707 3.78686
        0.546596 4.24761 3.4534
        2 4.23262 3.39221
        3.4534 4.24761 3.4534
        4.66707 4.66707 3.78686
        -1.15419 -1.15419 5.15419
        0.21314 -0.667071 4.66707
        2 -0.638793 4.63879
        3.78686 -0.667071 4.66707
        5.15419 -1.15419 5.15419
        -0.667071 0.21314 4.66707
        0.546596 0.546596 4.24761
        2 0.60779 4.23262
        3.4534 0.546596 4.24761
        4.66707 0.21314 4.66707
        -0.638793 2 4.63879
        0.60779 2 4.23262
        2 2 4.02961
        3.39221 2 4.23262
        4.63879 2 4.63879
        -0.667071 3.78686 4.66707
        0.546596 3.4534 4.24761
        2 3.39221 4.23262
        3.4534 3.4534 4.24761
        4.66707 3.78686 4.66707
        -1.15419 5.15419 5.15419
        0.21314 4.66707 4.66707
        2 4.63879 4.63879
        3.78686 4.66707 4.66707
        5.15419 5.15419 5.15419
      </DataArray>
    </Points>
    <Cells>
      <DataArray type="Int32" Name="connectivity" format="ascii"/>
      <DataArray type="Int32" Name="offsets" format="ascii"/>
      <DataArray type="UInt8" Name="types" format="ascii"/>
    </Cells>
  </Piece>
  </UnstructuredGrid>
</VTKFile>
