<VTKFile type="UnstructuredGrid" version="0.1">
  <UnstructuredGrid>
  <Piece NumberOfPoints="125" NumberOfCells="0">
    <PointData Scalars="Radius">
      <DataArray type="Float64" Name="Radius" format="ascii">
        0.5
        0.5
        0.5
        0.5
        0.5
        0.5
        0.5
        0.5
        0.5
        0.5
        0.5
        0.5
        0.5
        0.5
        0.5
        0.5
        0.5
        0.5
        0.5
        0.5
        0.5
        0.5
        0.5
        0.5
        0.5
        0.5
        0.5
        0.5
        0.5
        0.5
        0.5
        0.5
        0.5
        0.5
        0.5
        0.5
        0.5
        0.5
        0.5
        0.5
        0.5
        0.5
        0.5
        0.5
        0.5
        0.5
        0.5
        0.5
        0.5
        0.5
        0.5
        0.5
        0.5
        0.5
        0.5
        0.5
        0.5
        0.5
        0.5
        0.5
        0.5
        0.5
        0.5
        0.5
        0.5
        0.5
        0.5
        0.5
        0.5
        0.5
        0.5
        0.5
        0.5
        0.5
        0.5
        0.5
        0.5
        0.5
        0.5
        0.5
        0.5
        0.5
        0.5
        0.5
        0.5
        0.5
        0.5
        0.5
        0.5
        0.5
        0.5
        0.5
        0.5
        0.5
        0.5
        0.5
        0.5
        0.5
        0.5
        0.5
        0.5
        0.5
        0.5
        0.5
        0.5
        0.5
        0.5
        0.5
        0.5
        0.5
        0.5
        0.5
        0.5
        0.5
        0.5
        0.5
        0.5
        0.5
        0.5
        0.5
        0.5
        0.5
        0.5
        0.5
        0.5
      </DataArray>
    </PointData>
    <Points>
      <DataArray type="Float64" NumberOfComponents="3" format="ascii">
        -0.281623 -0.281623 -0.281623
        0.845302 -0.256881 -0.256881
        2 -0.255349 -0.255349
        3.1547 -0.256881 -0.256881
        4.28162 -0.281623 -0.281623
        -0.256881 0.845302 -0.256881
        0.856843 0.856843 -0.227502
        2 0.857367 -0.225856
        3.14316 0.856843 -0.227502
        4.25688 0.845302 -0.256881
        -0.255349 2 -0.255349
        0.857367 2 -0.225856
        2 2 -0.224253
        3.14263 2 -0.225856
        4.25535 2 -0.255349
        -0.256881 3.1547 -0.256881
        0.856843 3.14316 -0.227502
        2 3.14263 -0.225856
        3.14316 3.14316 -0.227502
        4.25688 3.1547 -0.256881
        -0.281623 4.28162 -0.281623
        0.845302 4.25688 -0.256881
        2 4.25535 -0.255349
        3.1547 4.25688 -0.256881
        4.28162 4.28162 -0.281623
        -0.256881 -0.256881 0.845302
        0.856843 -0.227502 0.856843
        2 -0.225856 0.857367
        3.14316 -0.227502 0.856843
        4.25688 -0.256881 0.845302
        -0.227502 0.856843 0.856843
        0.87182 0.87182 0.87182
        2 0.872483 0.872483
        3.12818 0.87182 0.87182
        4.2275 0.856843 0.856843
        -0.225856 2 0.857367
        0.872483 2 0.872483
        2 2 0.873154
        3.12752 2 0.872483
        4.22586 2 0.857367
        -0.227502 3.14316 0.856843
        0.87182 3.12818 0.87182
        2 3.12752 0.872483
        3.12818 3.12818 0.87182
        4.2275 3.14316 0.856843
        -0.256881 4.25688 0.845302
        0.856843 4.2275 0.856843
        2 4.22586 0.857367
        3.14316 4.2275 0.856843
        4.25688 4.25688 0.845302
        -0.255349 -0.255349 2
        0.857367 -0.225856 2
        2 -0.224253 2
        3.14263 -0.225856 2
        4.25535 -0.255349 2
        -0.225856 0.857367 2
        0.872483 0.872483 2
        2 0.873154 2
        3.12752 0.872483 2
        4.22586 0.857367 2
        -0.224253 2 2
        0.873154 2 2
        2 2 2
        3.12685 2 2
        4.22425 2 2
        -0.225856 3.14263 2
        0.872483 3.12752 2
        2 3.12685 2
        3.12752 3.12752 2
        4.22586 3.14263 2
        -0.255349 4.25535 2
        0.857367 4.22586 2
        2 4.22425 2
        3.14263 4.22586 2
        4.25535 4.25535 2
        -0.256881 -0.256881 3.1547
        0.856843 -0.227502 3.14316
        2 -0.225856 3.14263
        3.14316 -0.227502 3.14316
        4.25688 -0.256881 3.1547
        -0.227502 0.856843 3.14316
        0.87182 0.87182 3.12818
        2 0.872483 3.12752
        3.12818 0.87182 3.12818
        4.2275 0.856843 3.14316
        -0.225856 2 3.14263
        0.872483 2 3.12752
        2 2 3.12685
        3.12752 2 3.12752
        4.22586 2 3.14263
        -0.227502 3.14316 3.14316
        0.87182 3.12818 3.12818
        2 3.12752 3.12752
        3.12818 3.12818 3.12818
        4.2275 3.14316 3.14316
        -0.256881 4.25688 3.1547
        0.856843 4.2275 3.14316
        2 4.22586 3.14263
        3.14316 4.2275 3.14316
        4.25688 4.25688 3.1547
        -0.281623 -0.281623 4.28162
        0.845302 -0.256881 4.25688
        2 -0.255349 4.25535
        3.1547 -0.256881 4.25688
        4.28162 -0.281623 4.28162
        -0.256881 0.845302 4.25688
        0.856843 0.856843 4.2275
        2 0.857367 4.22586
        3.14316 0.856843 4.2275
        4.25688 0.845302 4.25688
        -0.255349 2 4.25535
        0.857367 2 4.22586
        2 2 4.22425
        3.14263 2 4.22586
        4.25535 2 4.25535
        -0.256881 3.1547 4.25688
        0.856843 3.14316 4.2275
        2 3.14263 4.22586
        3.14316 3.14316 4.2275
        4.25688 3.1547 4.25688
        -0.281623 4.28162 4.28162
        0.845302 4.25688 4.25688
        2 4.25535 4.25535
        3.1547 4.25688 4.25688
        4.28162 4.28162 4.28162
      </DataArray>
    </Points>
    <Cells>
      <DataArray type="Int32" Name="connectivity" format="ascii"/>
      <DataArray type="Int32" Name="offsets" format="ascii"/>
      <DataArray type="UInt8" Name="types" format="ascii"/>
    </Cells>
  </Piece>
  </UnstructuredGrid>
</VTKFile>
