<VTKFile type="UnstructuredGrid" version="0.1">
  <UnstructuredGrid>
  <Piece NumberOfPoints="125" NumberOfCells="0">
    <PointData Scalars="Radius">
      <DataArray type="Float64" Name="Radius" format="ascii">
        0.5
        0.5
        0.5
        0.5
        0.5
        0.5
        0.5
        0.5
        0.5
        0.5
        0.5
        0.5
        0.5
        0.5
        0.5
        0.5
        0.5
        0.5
        0.5
        0.5
        0.5
        0.5
        0.5
        0.5
        0.5
        0.5
        0.5
        0.5
        0.5
        0.5
        0.5
        0.5
        0.5
        0.5
        0.5
        0.5
        0.5
        0.5
        0.5
        0.5
        0.5
        0.5
        0.5
        0.5
        0.5
        0.5
        0.5
        0.5
        0.5
        0.5
        0.5
        0.5
        0.5
        0.5
        0.5
        0.5
        0.5
        0.5
        0.5
        0.5
        0.5
        0.5
        0.5
        0.5
        0.5
        0.5
        0.5
        0.5
        0.5
        0.5
        0.5
        0.5
        0.5
        0.5
        0.5
        0.5
        0.5
        0.5
        0.5
        0.5
        0.5
        0.5
        0.5
        0.5
        0.5
        0.5
        0.5
        0.5
        0.5
        0.5
        0.5
        0.5
        0.5
        0.5
        0.5
        0.5
        0.5
        0.5
        0.5
        0.5
        0.5
        0.5
        0.5
        0.5
        0.5
        0.5
        0.5
        0.5
        0.5
        0.5
        0.5
        0.5
        0.5
        0.5
        0.5
        0.5
        0.5
        0.5
        0.5
        0.5
        0.5
        0.5
        0.5
        0.5
        0.5
      </DataArray>
    </PointData>
    <Points>
      <DataArray type="Float64" NumberOfComponents="3" format="ascii">
        -0.355899 -0.355899 -0.355899
        0.790566 -0.323182 -0.323182
        2 -0.321701 -0.321701
        3.20943 -0.323182 -0.323182
        4.3559 -0.355899 -0.355899
        -0.323182 0.790566 -0.323182
        0.808396 0.808396 -0.284534
        2 0.809225 -0.283059
        3.1916 0.808396 -0.284534
        4.32318 0.790566 -0.323182
        -0.321701 2 -0.321701
        0.809225 2 -0.283059
        2 2 -0.281675
        3.19077 2 -0.283059
        4.3217 2 -0.321701
        -0.323182 3.20943 -0.323182
        0.808396 3.1916 -0.284534
        2 3.19077 -0.283059
        3.1916 3.1916 -0.284534
        4.32318 3.20943 -0.323182
        -0.355899 4.3559 -0.355899
        0.790566 4.32318 -0.323182
        2 4.3217 -0.321701
        3.20943 4.32318 -0.323182
        4.3559 4.3559 -0.355899
        -0.323182 -0.323182 0.790566
        0.808396 -0.284534 0.808396
        2 -0.283059 0.809225
        3.1916 -0.284534 0.808396
        4.32318 -0.323182 0.790566
        -0.284534 0.808396 0.808396
        0.831992 0.831992 0.831992
        2 0.83301 0.83301
        3.16801 0.831992 0.831992
        4.28453 0.808396 0.808396
        -0.283059 2 0.809225
        0.83301 2 0.83301
        2 2 0.834014
        3.16699 2 0.83301
        4.28306 2 0.809225
        -0.284534 3.1916 0.808396
        0.831992 3.16801 0.831992
        2 3.16699 0.83301
        3.16801 3.16801 0.831992
        4.28453 3.1916 0.808396
        -0.323182 4.32318 0.790566
        0.808396 4.28453 0.808396
        2 4.28306 0.809225
        3.1916 4.28453 0.808396
        4.32318 4.32318 0.790566
        -0.321701 -0.321701 2
        0.809225 -0.283059 2
        2 -0.281675 2
        3.19077 -0.283059 2
        4.3217 -0.321701 2
        -0.283059 0.809225 2
        0.83301 0.83301 2
        2 0.834014 2
        3.16699 0.83301 2
        4.28306 0.809225 2
        -0.281675 2 2
        0.834014 2 2
        2 2 2
        3.16599 2 2
        4.28167 2 2
        -0.283059 3.19077 2
        0.83301 3.16699 2
        2 3.16599 2
        3.16699 3.16699 2
        4.28306 3.19077 2
        -0.321701 4.3217 2
        0.809225 4.28306 2
        2 4.28167 2
        3.19077 4.28306 2
        4.3217 4.3217 2
        -0.323182 -0.323182 3.20943
        0.808396 -0.284534 3.1916
        2 -0.283059 3.19077
        3.1916 -0.284534 3.1916
        4.32318 -0.323182 3.20943
        -0.284534 0.808396 3.1916
        0.831992 0.831992 3.16801
        2 0.83301 3.16699
        3.16801 0.831992 3.16801
        4.28453 0.808396 3.1916
        -0.283059 2 3.19077
        0.83301 2 3.16699
        2 2 3.16599
        3.16699 2 3.16699
        4.28306 2 3.19077
        -0.284534 3.1916 3.1916
        0.831992 3.16801 3.16801
        2 3.16699 3.16699
        3.16801 3.16801 3.16801
        4.28453 3.1916 3.1916
        -0.323182 4.32318 3.20943
        0.808396 4.28453 3.1916
        2 4.28306 3.19077
        3.1916 4.28453 3.1916
        4.32318 4.32318 3.20943
        -0.355899 -0.355899 4.3559
        0.790566 -0.323182 4.32318
        2 -0.321701 4.3217
        3.20943 -0.323182 4.32318
        4.3559 -0.355899 4.3559
        -0.323182 0.790566 4.32318
        0.808396 0.808396 4.28453
        2 0.809225 4.28306
        3.1916 0.808396 4.28453
        4.32318 0.790566 4.32318
        -0.321701 2 4.3217
        0.809225 2 4.28306
        2 2 4.28167
        3.19077 2 4.28306
        4.3217 2 4.3217
        -0.323182 3.20943 4.32318
        0.808396 3.1916 4.28453
        2 3.19077 4.28306
        3.1916 3.1916 4.28453
        4.32318 3.20943 4.32318
        -0.355899 4.3559 4.3559
        0.790566 4.32318 4.32318
        2 4.3217 4.3217
        3.20943 4.32318 4.32318
        4.3559 4.3559 4.3559
      </DataArray>
    </Points>
    <Cells>
      <DataArray type="Int32" Name="connectivity" format="ascii"/>
      <DataArray type="Int32" Name="offsets" format="ascii"/>
      <DataArray type="UInt8" Name="types" format="ascii"/>
    </Cells>
  </Piece>
  </UnstructuredGrid>
</VTKFile>
