<VTKFile type="UnstructuredGrid" version="0.1">
  <UnstructuredGrid>
  <Piece NumberOfPoints="125" NumberOfCells="0">
    <PointData Scalars="Radius">
      <DataArray type="Float64" Name="Radius" format="ascii">
        0.5
        0.5
        0.5
        0.5
        0.5
        0.5
        0.5
        0.5
        0.5
        0.5
        0.5
        0.5
        0.5
        0.5
        0.5
        0.5
        0.5
        0.5
        0.5
        0.5
        0.5
        0.5
        0.5
        0.5
        0.5
        0.5
        0.5
        0.5
        0.5
        0.5
        0.5
        0.5
        0.5
        0.5
        0.5
        0.5
        0.5
        0.5
        0.5
        0.5
        0.5
        0.5
        0.5
        0.5
        0.5
        0.5
        0.5
        0.5
        0.5
        0.5
        0.5
        0.5
        0.5
        0.5
        0.5
        0.5
        0.5
        0.5
        0.5
        0.5
        0.5
        0.5
        0.5
        0.5
        0.5
        0.5
        0.5
        0.5
        0.5
        0.5
        0.5
        0.5
        0.5
        0.5
        0.5
        0.5
        0.5
        0.5
        0.5
        0.5
        0.5
        0.5
        0.5
        0.5
        0.5
        0.5
        0.5
        0.5
        0.5
        0.5
        0.5
        0.5
        0.5
        0.5
        0.5
        0.5
        0.5
        0.5
        0.5
        0.5
        0.5
        0.5
        0.5
        0.5
        0.5
        0.5
        0.5
        0.5
        0.5
        0.5
        0.5
        0.5
        0.5
        0.5
        0.5
        0.5
        0.5
        0.5
        0.5
        0.5
        0.5
        0.5
        0.5
        0.5
        0.5
      </DataArray>
    </PointData>
    <Points>
      <DataArray type="Float64" NumberOfComponents="3" format="ascii">
        -1.06013 -1.06013 -1.06013
        0.162952 -0.681097 -0.681097
        2.00002 -0.680871 -0.680871
        3.82183 -0.675309 -0.675309
        5.08759 -1.08759 -1.08759
        -0.681097 0.162952 -0.681097
        0.542538 0.542538 -0.294703
        2.00001 0.551216 -0.285126
        3.45718 0.542821 -0.29455
        4.67531 0.178171 -0.675309
        -0.680871 2.00002 -0.680871
        0.551216 2.00001 -0.285126
        2 2 -0.163954
        3.44879 2 -0.285127
        4.68087 2 -0.680869
        -0.675309 3.82183 -0.675309
        0.542821 3.45718 -0.29455
        2 3.44879 -0.285127
        3.45718 3.45718 -0.29455
        4.67531 3.82183 -0.675309
        -1.08759 5.08759 -1.08759
        0.178171 4.67531 -0.675309
        2 4.68087 -0.680869
        3.82183 4.67531 -0.675309
        5.08759 5.08759 -1.08759
        -0.681097 -0.681097 0.162952
        0.542538 -0.294703 0.542538
        2.00001 -0.285126 0.551216
        3.45718 -0.29455 0.542821
        4.67531 -0.675309 0.178171
        -0.294703 0.542538 0.542538
        0.943914 0.943914 0.943914
        2 0.951075 0.951075
        3.05609 0.943907 0.943907
        4.29455 0.542821 0.542821
        -0.285126 2.00001 0.551216
        0.951075 2 0.951075
        2 2 0.976343
        3.04893 2 0.951075
        4.28513 2 0.551213
        -0.29455 3.45718 0.542821
        0.943907 3.05609 0.943907
        2 3.04893 0.951075
        3.05609 3.05609 0.943907
        4.29455 3.45718 0.542821
        -0.675309 4.67531 0.178171
        0.542821 4.29455 0.542821
        2 4.28513 0.551213
        3.45718 4.29455 0.542821
        4.67531 4.67531 0.178171
        -0.680871 -0.680871 2.00002
        0.551216 -0.285126 2.00001
        2 -0.163954 2
        3.44879 -0.285127 2
        4.68087 -0.680869 2
        -0.285126 0.551216 2.00001
        0.951075 0.951075 2
        2 0.976343 2
        3.04893 0.951075 2
        4.28513 0.551213 2
        -0.163954 2 2
        0.976343 2 2
        2 2 2
        3.02366 2 2
        4.16395 2 2
        -0.285127 3.44879 2
        0.951075 3.04893 2
        2 3.02366 2
        3.04893 3.04893 2
        4.28513 3.44879 2
        -0.680869 4.68087 2
        0.551213 4.28513 2
        2 4.16395 2
        3.44879 4.28513 2
        4.68087 4.68087 2
        -0.675309 -0.675309 3.82183
        0.542821 -0.29455 3.45718
        2 -0.285127 3.44879
        3.45718 -0.29455 3.45718
        4.67531 -0.675309 3.82183
        -0.29455 0.542821 3.45718
        0.943907 0.943907 3.05609
        2 0.951075 3.04893
        3.05609 0.943907 3.05609
        4.29455 0.542821 3.45718
        -0.285127 2 3.44879
        0.951075 2 3.04893
        2 2 3.02366
        3.04893 2 3.04893
        4.28513 2 3.44879
        -0.29455 3.45718 3.45718
        0.943907 3.05609 3.05609
        2 3.04893 3.04893
        3.05609 3.05609 3.05609
        4.29455 3.45718 3.45718
        -0.675309 4.67531 3.82183
        0.542821 4.29455 3.45718
        2 4.28513 3.44879
        3.45718 4.29455 3.45718
        4.67531 4.67531 3.82183
        -1.08759 -1.08759 5.08759
        0.178171 -0.675309 4.67531
        2 -0.680869 4.68087
        3.82183 -0.675309 4.67531
        5.08759 -1.08759 5.08759
        -0.675309 0.178171 4.67531
        0.542821 0.542821 4.29455
        2 0.551213 4.28513
        3.45718 0.542821 4.29455
        4.67531 0.178171 4.67531
        -0.680869 2 4.68087
        0.551213 2 4.28513
        2 2 4.16395
        3.44879 2 4.28513
        4.68087 2 4.68087
        -0.675309 3.82183 4.67531
        0.542821 3.45718 4.29455
        2 3.44879 4.28513
        3.45718 3.45718 4.29455
        4.67531 3.82183 4.67531
        -1.08759 5.08759 5.08759
        0.178171 4.67531 4.67531
        2 4.68087 4.68087
        3.82183 4.67531 4.67531
        5.08759 5.08759 5.08759
      </DataArray>
    </Points>
    <Cells>
      <DataArray type="Int32" Name="connectivity" format="ascii"/>
      <DataArray type="Int32" Name="offsets" format="ascii"/>
      <DataArray type="UInt8" Name="types" format="ascii"/>
    </Cells>
  </Piece>
  </UnstructuredGrid>
</VTKFile>
