<VTKFile type="UnstructuredGrid" version="0.1">
  <UnstructuredGrid>
  <Piece NumberOfPoints="125" NumberOfCells="0">
    <PointData Scalars="Radius">
      <DataArray type="Float64" Name="Radius" format="ascii">
        0.5
        0.5
        0.5
        0.5
        0.5
        0.5
        0.5
        0.5
        0.5
        0.5
        0.5
        0.5
        0.5
        0.5
        0.5
        0.5
        0.5
        0.5
        0.5
        0.5
        0.5
        0.5
        0.5
        0.5
        0.5
        0.5
        0.5
        0.5
        0.5
        0.5
        0.5
        0.5
        0.5
        0.5
        0.5
        0.5
        0.5
        0.5
        0.5
        0.5
        0.5
        0.5
        0.5
        0.5
        0.5
        0.5
        0.5
        0.5
        0.5
        0.5
        0.5
        0.5
        0.5
        0.5
        0.5
        0.5
        0.5
        0.5
        0.5
        0.5
        0.5
        0.5
        0.5
        0.5
        0.5
        0.5
        0.5
        0.5
        0.5
        0.5
        0.5
        0.5
        0.5
        0.5
        0.5
        0.5
        0.5
        0.5
        0.5
        0.5
        0.5
        0.5
        0.5
        0.5
        0.5
        0.5
        0.5
        0.5
        0.5
        0.5
        0.5
        0.5
        0.5
        0.5
        0.5
        0.5
        0.5
        0.5
        0.5
        0.5
        0.5
        0.5
        0.5
        0.5
        0.5
        0.5
        0.5
        0.5
        0.5
        0.5
        0.5
        0.5
        0.5
        0.5
        0.5
        0.5
        0.5
        0.5
        0.5
        0.5
        0.5
        0.5
        0.5
        0.5
        0.5
      </DataArray>
    </PointData>
    <Points>
      <DataArray type="Float64" NumberOfComponents="3" format="ascii">
        -1.05054 -1.05054 -1.05054
        0.15518 -0.673572 -0.673572
        2.00001 -0.688288 -0.688288
        3.83557 -0.670151 -0.670151
        5.0671 -1.0671 -1.0671
        -0.673572 0.15518 -0.673572
        0.5388 0.5388 -0.302583
        2 0.53208 -0.293357
        3.461 0.538995 -0.302484
        4.67015 0.164429 -0.670151
        -0.688288 2.00001 -0.688288
        0.53208 2 -0.293357
        2 2 -0.200658
        3.46792 2 -0.293357
        4.68829 2 -0.688287
        -0.670151 3.83557 -0.670151
        0.538995 3.461 -0.302484
        2 3.46792 -0.293357
        3.461 3.461 -0.302484
        4.67015 3.83557 -0.670151
        -1.0671 5.0671 -1.0671
        0.164429 4.67015 -0.670151
        2 4.68829 -0.688287
        3.83557 4.67015 -0.670151
        5.0671 5.0671 -1.0671
        -0.673572 -0.673572 0.15518
        0.5388 -0.302583 0.5388
        2 -0.293357 0.53208
        3.461 -0.302484 0.538995
        4.67015 -0.670151 0.164429
        -0.302583 0.5388 0.5388
        0.940752 0.940752 0.940752
        2 0.938622 0.938622
        3.05925 0.940749 0.940749
        4.30248 0.538995 0.538995
        -0.293357 2 0.53208
        0.938622 2 0.938622
        2 2 0.954789
        3.06138 2 0.938622
        4.29336 2 0.532079
        -0.302484 3.461 0.538995
        0.940749 3.05925 0.940749
        2 3.06138 0.938622
        3.05925 3.05925 0.940749
        4.30248 3.461 0.538995
        -0.670151 4.67015 0.164429
        0.538995 4.30248 0.538995
        2 4.29336 0.532079
        3.461 4.30248 0.538995
        4.67015 4.67015 0.164429
        -0.688288 -0.688288 2.00001
        0.53208 -0.293357 2
        2 -0.200658 2
        3.46792 -0.293357 2
        4.68829 -0.688287 2
        -0.293357 0.53208 2
        0.938622 0.938622 2
        2 0.954789 2
        3.06138 0.938622 2
        4.29336 0.532079 2
        -0.200658 2 2
        0.954789 2 2
        2 2 2
        3.04521 2 2
        4.20066 2 2
        -0.293357 3.46792 2
        0.938622 3.06138 2
        2 3.04521 2
        3.06138 3.06138 2
        4.29336 3.46792 2
        -0.688287 4.68829 2
        0.532079 4.29336 2
        2 4.20066 2
        3.46792 4.29336 2
        4.68829 4.68829 2
        -0.670151 -0.670151 3.83557
        0.538995 -0.302484 3.461
        2 -0.293357 3.46792
        3.461 -0.302484 3.461
        4.67015 -0.670151 3.83557
        -0.302484 0.538995 3.461
        0.940749 0.940749 3.05925
        2 0.938622 3.06138
        3.05925 0.940749 3.05925
        4.30248 0.538995 3.461
        -0.293357 2 3.46792
        0.938622 2 3.06138
        2 2 3.04521
        3.06138 2 3.06138
        4.29336 2 3.46792
        -0.302484 3.461 3.461
        0.940749 3.05925 3.05925
        2 3.06138 3.06138
        3.05925 3.05925 3.05925
        4.30248 3.461 3.461
        -0.670151 4.67015 3.83557
        0.538995 4.30248 3.461
        2 4.29336 3.46792
        3.461 4.30248 3.461
        4.67015 4.67015 3.83557
        -1.0671 -1.0671 5.0671
        0.164429 -0.670151 4.67015
        2 -0.688287 4.68829
        3.83557 -0.670151 4.67015
        5.0671 -1.0671 5.0671
        -0.670151 0.164429 4.67015
        0.538995 0.538995 4.30248
        2 0.532079 4.29336
        3.461 0.538995 4.30248
        4.67015 0.164429 4.67015
        -0.688287 2 4.68829
        0.532079 2 4.29336
        2 2 4.20066
        3.46792 2 4.29336
        4.68829 2 4.68829
        -0.670151 3.83557 4.67015
        0.538995 3.461 4.30248
        2 3.46792 4.29336
        3.461 3.461 4.30248
        4.67015 3.83557 4.67015
        -1.0671 5.0671 5.0671
        0.164429 4.67015 4.67015
        2 4.68829 4.68829
        3.83557 4.67015 4.67015
        5.0671 5.0671 5.0671
      </DataArray>
    </Points>
    <Cells>
      <DataArray type="Int32" Name="connectivity" format="ascii"/>
      <DataArray type="Int32" Name="offsets" format="ascii"/>
      <DataArray type="UInt8" Name="types" format="ascii"/>
    </Cells>
  </Piece>
  </UnstructuredGrid>
</VTKFile>
