<VTKFile type="UnstructuredGrid" version="0.1">
  <UnstructuredGrid>
  <Piece NumberOfPoints="125" NumberOfCells="0">
    <PointData Scalars="Radius">
      <DataArray type="Float64" Name="Radius" format="ascii">
        0.5
        0.5
        0.5
        0.5
        0.5
        0.5
        0.5
        0.5
        0.5
        0.5
        0.5
        0.5
        0.5
        0.5
        0.5
        0.5
        0.5
        0.5
        0.5
        0.5
        0.5
        0.5
        0.5
        0.5
        0.5
        0.5
        0.5
        0.5
        0.5
        0.5
        0.5
        0.5
        0.5
        0.5
        0.5
        0.5
        0.5
        0.5
        0.5
        0.5
        0.5
        0.5
        0.5
        0.5
        0.5
        0.5
        0.5
        0.5
        0.5
        0.5
        0.5
        0.5
        0.5
        0.5
        0.5
        0.5
        0.5
        0.5
        0.5
        0.5
        0.5
        0.5
        0.5
        0.5
        0.5
        0.5
        0.5
        0.5
        0.5
        0.5
        0.5
        0.5
        0.5
        0.5
        0.5
        0.5
        0.5
        0.5
        0.5
        0.5
        0.5
        0.5
        0.5
        0.5
        0.5
        0.5
        0.5
        0.5
        0.5
        0.5
        0.5
        0.5
        0.5
        0.5
        0.5
        0.5
        0.5
        0.5
        0.5
        0.5
        0.5
        0.5
        0.5
        0.5
        0.5
        0.5
        0.5
        0.5
        0.5
        0.5
        0.5
        0.5
        0.5
        0.5
        0.5
        0.5
        0.5
        0.5
        0.5
        0.5
        0.5
        0.5
        0.5
        0.5
        0.5
      </DataArray>
    </PointData>
    <Points>
      <DataArray type="Float64" NumberOfComponents="3" format="ascii">
        -0.430721 -0.430721 -0.430721
        0.732254 -0.38882 -0.38882
        2 -0.387962 -0.387962
        3.26775 -0.38882 -0.38882
        4.43072 -0.430721 -0.430721
        -0.38882 0.732254 -0.38882
        0.759099 0.759099 -0.339326
        2 0.760335 -0.338658
        3.2409 0.759099 -0.339326
        4.38882 0.732254 -0.38882
        -0.387962 2 -0.387962
        0.760335 2 -0.338658
        2 2 -0.338105
        3.23967 2 -0.338658
        4.38796 2 -0.387962
        -0.38882 3.26775 -0.38882
        0.759099 3.2409 -0.339326
        2 3.23967 -0.338658
        3.2409 3.2409 -0.339326
        4.38882 3.26775 -0.38882
        -0.430721 4.43072 -0.430721
        0.732254 4.38882 -0.38882
        2 4.38796 -0.387962
        3.26775 4.38882 -0.38882
        4.43072 4.43072 -0.430721
        -0.38882 -0.38882 0.732254
        0.759099 -0.339326 0.759099
        2 -0.338658 0.760335
        3.2409 -0.339326 0.759099
        4.38882 -0.38882 0.732254
        -0.339326 0.759099 0.759099
        0.795001 0.795001 0.795001
        2 0.796432 0.796432
        3.205 0.795001 0.795001
        4.33933 0.759099 0.759099
        -0.338658 2 0.760335
        0.796432 2 0.796432
        2 2 0.797819
        3.20357 2 0.796432
        4.33866 2 0.760335
        -0.339326 3.2409 0.759099
        0.795001 3.205 0.795001
        2 3.20357 0.796432
        3.205 3.205 0.795001
        4.33933 3.2409 0.759099
        -0.38882 4.38882 0.732254
        0.759099 4.33933 0.759099
        2 4.33866 0.760335
        3.2409 4.33933 0.759099
        4.38882 4.38882 0.732254
        -0.387962 -0.387962 2
        0.760335 -0.338658 2
        2 -0.338105 2
        3.23967 -0.338658 2
        4.38796 -0.387962 2
        -0.338658 0.760335 2
        0.796432 0.796432 2
        2 0.797819 2
        3.20357 0.796432 2
        4.33866 0.760335 2
        -0.338105 2 2
        0.797819 2 2
        2 2 2
        3.20218 2 2
        4.33811 2 2
        -0.338658 3.23967 2
        0.796432 3.20357 2
        2 3.20218 2
        3.20357 3.20357 2
        4.33866 3.23967 2
        -0.387962 4.38796 2
        0.760335 4.33866 2
        2 4.33811 2
        3.23967 4.33866 2
        4.38796 4.38796 2
        -0.38882 -0.38882 3.26775
        0.759099 -0.339326 3.2409
        2 -0.338658 3.23967
        3.2409 -0.339326 3.2409
        4.38882 -0.38882 3.26775
        -0.339326 0.759099 3.2409
        0.795001 0.795001 3.205
        2 0.796432 3.20357
        3.205 0.795001 3.205
        4.33933 0.759099 3.2409
        -0.338658 2 3.23967
        0.796432 2 3.20357
        2 2 3.20218
        3.20357 2 3.20357
        4.33866 2 3.23967
        -0.339326 3.2409 3.2409
        0.795001 3.205 3.205
        2 3.20357 3.20357
        3.205 3.205 3.205
        4.33933 3.2409 3.2409
        -0.38882 4.38882 3.26775
        0.759099 4.33933 3.2409
        2 4.33866 3.23967
        3.2409 4.33933 3.2409
        4.38882 4.38882 3.26775
        -0.430721 -0.430721 4.43072
        0.732254 -0.38882 4.38882
        2 -0.387962 4.38796
        3.26775 -0.38882 4.38882
        4.43072 -0.430721 4.43072
        -0.38882 0.732254 4.38882
        0.759099 0.759099 4.33933
        2 0.760335 4.33866
        3.2409 0.759099 4.33933
        4.38882 0.732254 4.38882
        -0.387962 2 4.38796
        0.760335 2 4.33866
        2 2 4.33811
        3.23967 2 4.33866
        4.38796 2 4.38796
        -0.38882 3.26775 4.38882
        0.759099 3.2409 4.33933
        2 3.23967 4.33866
        3.2409 3.2409 4.33933
        4.38882 3.26775 4.38882
        -0.430721 4.43072 4.43072
        0.732254 4.38882 4.38882
        2 4.38796 4.38796
        3.26775 4.38882 4.38882
        4.43072 4.43072 4.43072
      </DataArray>
    </Points>
    <Cells>
      <DataArray type="Int32" Name="connectivity" format="ascii"/>
      <DataArray type="Int32" Name="offsets" format="ascii"/>
      <DataArray type="UInt8" Name="types" format="ascii"/>
    </Cells>
  </Piece>
  </UnstructuredGrid>
</VTKFile>
