<VTKFile type="UnstructuredGrid" version="0.1">
  <UnstructuredGrid>
  <Piece NumberOfPoints="125" NumberOfCells="0">
    <PointData Scalars="Radius">
      <DataArray type="Float64" Name="Radius" format="ascii">
        0.5
        0.5
        0.5
        0.5
        0.5
        0.5
        0.5
        0.5
        0.5
        0.5
        0.5
        0.5
        0.5
        0.5
        0.5
        0.5
        0.5
        0.5
        0.5
        0.5
        0.5
        0.5
        0.5
        0.5
        0.5
        0.5
        0.5
        0.5
        0.5
        0.5
        0.5
        0.5
        0.5
        0.5
        0.5
        0.5
        0.5
        0.5
        0.5
        0.5
        0.5
        0.5
        0.5
        0.5
        0.5
        0.5
        0.5
        0.5
        0.5
        0.5
        0.5
        0.5
        0.5
        0.5
        0.5
        0.5
        0.5
        0.5
        0.5
        0.5
        0.5
        0.5
        0.5
        0.5
        0.5
        0.5
        0.5
        0.5
        0.5
        0.5
        0.5
        0.5
        0.5
        0.5
        0.5
        0.5
        0.5
        0.5
        0.5
        0.5
        0.5
        0.5
        0.5
        0.5
        0.5
        0.5
        0.5
        0.5
        0.5
        0.5
        0.5
        0.5
        0.5
        0.5
        0.5
        0.5
        0.5
        0.5
        0.5
        0.5
        0.5
        0.5
        0.5
        0.5
        0.5
        0.5
        0.5
        0.5
        0.5
        0.5
        0.5
        0.5
        0.5
        0.5
        0.5
        0.5
        0.5
        0.5
        0.5
        0.5
        0.5
        0.5
        0.5
        0.5
        0.5
      </DataArray>
    </PointData>
    <Points>
      <DataArray type="Float64" NumberOfComponents="3" format="ascii">
        -0.934444 -0.934444 -0.934444
        0.137568 -0.605258 -0.605258
        2 -0.676019 -0.676019
        3.86243 -0.605258 -0.605258
        4.93444 -0.934444 -0.934444
        -0.605258 0.137568 -0.605258
        0.482026 0.482026 -0.285685
        2 0.428362 -0.302258
        3.51797 0.482026 -0.285685
        4.60526 0.137568 -0.605258
        -0.676019 2 -0.676019
        0.428362 2 -0.302258
        2 2 -0.34621
        3.57164 2 -0.302258
        4.67602 2 -0.676019
        -0.605258 3.86243 -0.605258
        0.482026 3.51797 -0.285685
        2 3.57164 -0.302258
        3.51797 3.51797 -0.285685
        4.60526 3.86243 -0.605258
        -0.934444 4.93444 -0.934444
        0.137568 4.60526 -0.605258
        2 4.67602 -0.676019
        3.86243 4.60526 -0.605258
        4.93444 4.93444 -0.934444
        -0.605258 -0.605258 0.137568
        0.482026 -0.285685 0.482026
        2 -0.302258 0.428362
        3.51797 -0.285685 0.482026
        4.60526 -0.605258 0.137568
        -0.285685 0.482026 0.482026
        0.83171 0.83171 0.83171
        2 0.80193 0.80193
        3.16829 0.83171 0.83171
        4.28568 0.482026 0.482026
        -0.302258 2 0.428362
        0.80193 2 0.80193
        2 2 0.789472
        3.19807 2 0.80193
        4.30226 2 0.428362
        -0.285685 3.51797 0.482026
        0.83171 3.16829 0.83171
        2 3.19807 0.80193
        3.16829 3.16829 0.83171
        4.28568 3.51797 0.482026
        -0.605258 4.60526 0.137568
        0.482026 4.28568 0.482026
        2 4.30226 0.428362
        3.51797 4.28568 0.482026
        4.60526 4.60526 0.137568
        -0.676019 -0.676019 2
        0.428362 -0.302258 2
        2 -0.34621 2
        3.57164 -0.302258 2
        4.67602 -0.676019 2
        -0.302258 0.428362 2
        0.80193 0.80193 2
        2 0.789472 2
        3.19807 0.80193 2
        4.30226 0.428362 2
        -0.34621 2 2
        0.789472 2 2
        2 2 2
        3.21053 2 2
        4.34621 2 2
        -0.302258 3.57164 2
        0.80193 3.19807 2
        2 3.21053 2
        3.19807 3.19807 2
        4.30226 3.57164 2
        -0.676019 4.67602 2
        0.428362 4.30226 2
        2 4.34621 2
        3.57164 4.30226 2
        4.67602 4.67602 2
        -0.605258 -0.605258 3.86243
        0.482026 -0.285685 3.51797
        2 -0.302258 3.57164
        3.51797 -0.285685 3.51797
        4.60526 -0.605258 3.86243
        -0.285685 0.482026 3.51797
        0.83171 0.83171 3.16829
        2 0.80193 3.19807
        3.16829 0.83171 3.16829
        4.28568 0.482026 3.51797
        -0.302258 2 3.57164
        0.80193 2 3.19807
        2 2 3.21053
        3.19807 2 3.19807
        4.30226 2 3.57164
        -0.285685 3.51797 3.51797
        0.83171 3.16829 3.16829
        2 3.19807 3.19807
        3.16829 3.16829 3.16829
        4.28568 3.51797 3.51797
        -0.605258 4.60526 3.86243
        0.482026 4.28568 3.51797
        2 4.30226 3.57164
        3.51797 4.28568 3.51797
        4.60526 4.60526 3.86243
        -0.934444 -0.934444 4.93444
        0.137568 -0.605258 4.60526
        2 -0.676019 4.67602
        3.86243 -0.605258 4.60526
        4.93444 -0.934444 4.93444
        -0.605258 0.137568 4.60526
        0.482026 0.482026 4.28568
        2 0.428362 4.30226
        3.51797 0.482026 4.28568
        4.60526 0.137568 4.60526
        -0.676019 2 4.67602
        0.428362 2 4.30226
        2 2 4.34621
        3.57164 2 4.30226
        4.67602 2 4.67602
        -0.605258 3.86243 4.60526
        0.482026 3.51797 4.28568
        2 3.57164 4.30226
        3.51797 3.51797 4.28568
        4.60526 3.86243 4.60526
        -0.934444 4.93444 4.93444
        0.137568 4.60526 4.60526
        2 4.67602 4.67602
        3.86243 4.60526 4.60526
        4.93444 4.93444 4.93444
      </DataArray>
    </Points>
    <Cells>
      <DataArray type="Int32" Name="connectivity" format="ascii"/>
      <DataArray type="Int32" Name="offsets" format="ascii"/>
      <DataArray type="UInt8" Name="types" format="ascii"/>
    </Cells>
  </Piece>
  </UnstructuredGrid>
</VTKFile>
