<VTKFile type="UnstructuredGrid" version="0.1">
  <UnstructuredGrid>
  <Piece NumberOfPoints="125" NumberOfCells="0">
    <PointData Scalars="Radius">
      <DataArray type="Float64" Name="Radius" format="ascii">
        0.5
        0.5
        0.5
        0.5
        0.5
        0.5
        0.5
        0.5
        0.5
        0.5
        0.5
        0.5
        0.5
        0.5
        0.5
        0.5
        0.5
        0.5
        0.5
        0.5
        0.5
        0.5
        0.5
        0.5
        0.5
        0.5
        0.5
        0.5
        0.5
        0.5
        0.5
        0.5
        0.5
        0.5
        0.5
        0.5
        0.5
        0.5
        0.5
        0.5
        0.5
        0.5
        0.5
        0.5
        0.5
        0.5
        0.5
        0.5
        0.5
        0.5
        0.5
        0.5
        0.5
        0.5
        0.5
        0.5
        0.5
        0.5
        0.5
        0.5
        0.5
        0.5
        0.5
        0.5
        0.5
        0.5
        0.5
        0.5
        0.5
        0.5
        0.5
        0.5
        0.5
        0.5
        0.5
        0.5
        0.5
        0.5
        0.5
        0.5
        0.5
        0.5
        0.5
        0.5
        0.5
        0.5
        0.5
        0.5
        0.5
        0.5
        0.5
        0.5
        0.5
        0.5
        0.5
        0.5
        0.5
        0.5
        0.5
        0.5
        0.5
        0.5
        0.5
        0.5
        0.5
        0.5
        0.5
        0.5
        0.5
        0.5
        0.5
        0.5
        0.5
        0.5
        0.5
        0.5
        0.5
        0.5
        0.5
        0.5
        0.5
        0.5
        0.5
        0.5
        0.5
      </DataArray>
    </PointData>
    <Points>
      <DataArray type="Float64" NumberOfComponents="3" format="ascii">
        -0.717599 -0.717599 -0.717599
        0.336129 -0.565268 -0.565268
        2 -0.58794 -0.58794
        3.66387 -0.565268 -0.565268
        4.7176 -0.717599 -0.717599
        -0.565268 0.336129 -0.565268
        0.486328 0.486328 -0.36603
        2 0.487566 -0.396491
        3.51367 0.486328 -0.36603
        4.56527 0.336129 -0.565268
        -0.58794 2 -0.58794
        0.487566 2 -0.396491
        2 2 -0.418348
        3.51243 2 -0.396491
        4.58794 2 -0.58794
        -0.565268 3.66387 -0.565268
        0.486328 3.51367 -0.36603
        2 3.51243 -0.396491
        3.51367 3.51367 -0.36603
        4.56527 3.66387 -0.565268
        -0.717599 4.7176 -0.717599
        0.336129 4.56527 -0.565268
        2 4.58794 -0.58794
        3.66387 4.56527 -0.565268
        4.7176 4.7176 -0.717599
        -0.565268 -0.565268 0.336129
        0.486328 -0.36603 0.486328
        2 -0.396491 0.487566
        3.51367 -0.36603 0.486328
        4.56527 -0.565268 0.336129
        -0.36603 0.486328 0.486328
        0.686069 0.686069 0.686069
        2 0.685524 0.685524
        3.31393 0.686069 0.686069
        4.36603 0.486328 0.486328
        -0.396491 2 0.487566
        0.685524 2 0.685524
        2 2 0.689757
        3.31448 2 0.685524
        4.39649 2 0.487566
        -0.36603 3.51367 0.486328
        0.686069 3.31393 0.686069
        2 3.31448 0.685524
        3.31393 3.31393 0.686069
        4.36603 3.51367 0.486328
        -0.565268 4.56527 0.336129
        0.486328 4.36603 0.486328
        2 4.39649 0.487566
        3.51367 4.36603 0.486328
        4.56527 4.56527 0.336129
        -0.58794 -0.58794 2
        0.487566 -0.396491 2
        2 -0.418348 2
        3.51243 -0.396491 2
        4.58794 -0.58794 2
        -0.396491 0.487566 2
        0.685524 0.685524 2
        2 0.689757 2
        3.31448 0.685524 2
        4.39649 0.487566 2
        -0.418348 2 2
        0.689757 2 2
        2 2 2
        3.31024 2 2
        4.41835 2 2
        -0.396491 3.51243 2
        0.685524 3.31448 2
        2 3.31024 2
        3.31448 3.31448 2
        4.39649 3.51243 2
        -0.58794 4.58794 2
        0.487566 4.39649 2
        2 4.41835 2
        3.51243 4.39649 2
        4.58794 4.58794 2
        -0.565268 -0.565268 3.66387
        0.486328 -0.36603 3.51367
        2 -0.396491 3.51243
        3.51367 -0.36603 3.51367
        4.56527 -0.565268 3.66387
        -0.36603 0.486328 3.51367
        0.686069 0.686069 3.31393
        2 0.685524 3.31448
        3.31393 0.686069 3.31393
        4.36603 0.486328 3.51367
        -0.396491 2 3.51243
        0.685524 2 3.31448
        2 2 3.31024
        3.31448 2 3.31448
        4.39649 2 3.51243
        -0.36603 3.51367 3.51367
        0.686069 3.31393 3.31393
        2 3.31448 3.31448
        3.31393 3.31393 3.31393
        4.36603 3.51367 3.51367
        -0.565268 4.56527 3.66387
        0.486328 4.36603 3.51367
        2 4.39649 3.51243
        3.51367 4.36603 3.51367
        4.56527 4.56527 3.66387
        -0.717599 -0.717599 4.7176
        0.336129 -0.565268 4.56527
        2 -0.58794 4.58794
        3.66387 -0.565268 4.56527
        4.7176 -0.717599 4.7176
        -0.565268 0.336129 4.56527
        0.486328 0.486328 4.36603
        2 0.487566 4.39649
        3.51367 0.486328 4.36603
        4.56527 0.336129 4.56527
        -0.58794 2 4.58794
        0.487566 2 4.39649
        2 2 4.41835
        3.51243 2 4.39649
        4.58794 2 4.58794
        -0.565268 3.66387 4.56527
        0.486328 3.51367 4.36603
        2 3.51243 4.39649
        3.51367 3.51367 4.36603
        4.56527 3.66387 4.56527
        -0.717599 4.7176 4.7176
        0.336129 4.56527 4.56527
        2 4.58794 4.58794
        3.66387 4.56527 4.56527
        4.7176 4.7176 4.7176
      </DataArray>
    </Points>
    <Cells>
      <DataArray type="Int32" Name="connectivity" format="ascii"/>
      <DataArray type="Int32" Name="offsets" format="ascii"/>
      <DataArray type="UInt8" Name="types" format="ascii"/>
    </Cells>
  </Piece>
  </UnstructuredGrid>
</VTKFile>
