<VTKFile type="UnstructuredGrid" version="0.1">
  <UnstructuredGrid>
  <Piece NumberOfPoints="125" NumberOfCells="0">
    <PointData Scalars="Radius">
      <DataArray type="Float64" Name="Radius" format="ascii">
        0.5
        0.5
        0.5
        0.5
        0.5
        0.5
        0.5
        0.5
        0.5
        0.5
        0.5
        0.5
        0.5
        0.5
        0.5
        0.5
        0.5
        0.5
        0.5
        0.5
        0.5
        0.5
        0.5
        0.5
        0.5
        0.5
        0.5
        0.5
        0.5
        0.5
        0.5
        0.5
        0.5
        0.5
        0.5
        0.5
        0.5
        0.5
        0.5
        0.5
        0.5
        0.5
        0.5
        0.5
        0.5
        0.5
        0.5
        0.5
        0.5
        0.5
        0.5
        0.5
        0.5
        0.5
        0.5
        0.5
        0.5
        0.5
        0.5
        0.5
        0.5
        0.5
        0.5
        0.5
        0.5
        0.5
        0.5
        0.5
        0.5
        0.5
        0.5
        0.5
        0.5
        0.5
        0.5
        0.5
        0.5
        0.5
        0.5
        0.5
        0.5
        0.5
        0.5
        0.5
        0.5
        0.5
        0.5
        0.5
        0.5
        0.5
        0.5
        0.5
        0.5
        0.5
        0.5
        0.5
        0.5
        0.5
        0.5
        0.5
        0.5
        0.5
        0.5
        0.5
        0.5
        0.5
        0.5
        0.5
        0.5
        0.5
        0.5
        0.5
        0.5
        0.5
        0.5
        0.5
        0.5
        0.5
        0.5
        0.5
        0.5
        0.5
        0.5
        0.5
        0.5
      </DataArray>
    </PointData>
    <Points>
      <DataArray type="Float64" NumberOfComponents="3" format="ascii">
        -0.152104 -0.152104 -0.152104
        0.937805 -0.139796 -0.139796
        2 -0.138973 -0.138973
        3.06219 -0.139796 -0.139796
        4.1521 -0.152104 -0.152104
        -0.139796 0.937805 -0.139796
        0.942248 0.942248 -0.12494
        2 0.942431 -0.123965
        3.05775 0.942248 -0.12494
        4.1398 0.937805 -0.139796
        -0.138973 2 -0.138973
        0.942431 2 -0.123965
        2 2 -0.122986
        3.05757 2 -0.123965
        4.13897 2 -0.138973
        -0.139796 3.06219 -0.139796
        0.942248 3.05775 -0.12494
        2 3.05757 -0.123965
        3.05775 3.05775 -0.12494
        4.1398 3.06219 -0.139796
        -0.152104 4.1521 -0.152104
        0.937805 4.1398 -0.139796
        2 4.13897 -0.138973
        3.06219 4.1398 -0.139796
        4.1521 4.1521 -0.152104
        -0.139796 -0.139796 0.937805
        0.942248 -0.12494 0.942248
        2 -0.123965 0.942431
        3.05775 -0.12494 0.942248
        4.1398 -0.139796 0.937805
        -0.12494 0.942248 0.942248
        0.947839 0.947839 0.947839
        2 0.948093 0.948093
        3.05216 0.947839 0.947839
        4.12494 0.942248 0.942248
        -0.123965 2 0.942431
        0.948093 2 0.948093
        2 2 0.948348
        3.05191 2 0.948093
        4.12396 2 0.942431
        -0.12494 3.05775 0.942248
        0.947839 3.05216 0.947839
        2 3.05191 0.948093
        3.05216 3.05216 0.947839
        4.12494 3.05775 0.942248
        -0.139796 4.1398 0.937805
        0.942248 4.12494 0.942248
        2 4.12396 0.942431
        3.05775 4.12494 0.942248
        4.1398 4.1398 0.937805
        -0.138973 -0.138973 2
        0.942431 -0.123965 2
        2 -0.122986 2
        3.05757 -0.123965 2
        4.13897 -0.138973 2
        -0.123965 0.942431 2
        0.948093 0.948093 2
        2 0.948348 2
        3.05191 0.948093 2
        4.12396 0.942431 2
        -0.122986 2 2
        0.948348 2 2
        2 2 2
        3.05165 2 2
        4.12299 2 2
        -0.123965 3.05757 2
        0.948093 3.05191 2
        2 3.05165 2
        3.05191 3.05191 2
        4.12396 3.05757 2
        -0.138973 4.13897 2
        0.942431 4.12396 2
        2 4.12299 2
        3.05757 4.12396 2
        4.13897 4.13897 2
        -0.139796 -0.139796 3.06219
        0.942248 -0.12494 3.05775
        2 -0.123965 3.05757
        3.05775 -0.12494 3.05775
        4.1398 -0.139796 3.06219
        -0.12494 0.942248 3.05775
        0.947839 0.947839 3.05216
        2 0.948093 3.05191
        3.05216 0.947839 3.05216
        4.12494 0.942248 3.05775
        -0.123965 2 3.05757
        0.948093 2 3.05191
        2 2 3.05165
        3.05191 2 3.05191
        4.12396 2 3.05757
        -0.12494 3.05775 3.05775
        0.947839 3.05216 3.05216
        2 3.05191 3.05191
        3.05216 3.05216 3.05216
        4.12494 3.05775 3.05775
        -0.139796 4.1398 3.06219
        0.942248 4.12494 3.05775
        2 4.12396 3.05757
        3.05775 4.12494 3.05775
        4.1398 4.1398 3.06219
        -0.152104 -0.152104 4.1521
        0.937805 -0.139796 4.1398
        2 -0.138973 4.13897
        3.06219 -0.139796 4.1398
        4.1521 -0.152104 4.1521
        -0.139796 0.937805 4.1398
        0.942248 0.942248 4.12494
        2 0.942431 4.12396
        3.05775 0.942248 4.12494
        4.1398 0.937805 4.1398
        -0.138973 2 4.13897
        0.942431 2 4.12396
        2 2 4.12299
        3.05757 2 4.12396
        4.13897 2 4.13897
        -0.139796 3.06219 4.1398
        0.942248 3.05775 4.12494
        2 3.05757 4.12396
        3.05775 3.05775 4.12494
        4.1398 3.06219 4.1398
        -0.152104 4.1521 4.1521
        0.937805 4.1398 4.1398
        2 4.13897 4.13897
        3.06219 4.1398 4.1398
        4.1521 4.1521 4.1521
      </DataArray>
    </Points>
    <Cells>
      <DataArray type="Int32" Name="connectivity" format="ascii"/>
      <DataArray type="Int32" Name="offsets" format="ascii"/>
      <DataArray type="UInt8" Name="types" format="ascii"/>
    </Cells>
  </Piece>
  </UnstructuredGrid>
</VTKFile>
