<VTKFile type="UnstructuredGrid" version="0.1">
  <UnstructuredGrid>
  <Piece NumberOfPoints="125" NumberOfCells="0">
    <PointData Scalars="Radius">
      <DataArray type="Float64" Name="Radius" format="ascii">
        0.5
        0.5
        0.5
        0.5
        0.5
        0.5
        0.5
        0.5
        0.5
        0.5
        0.5
        0.5
        0.5
        0.5
        0.5
        0.5
        0.5
        0.5
        0.5
        0.5
        0.5
        0.5
        0.5
        0.5
        0.5
        0.5
        0.5
        0.5
        0.5
        0.5
        0.5
        0.5
        0.5
        0.5
        0.5
        0.5
        0.5
        0.5
        0.5
        0.5
        0.5
        0.5
        0.5
        0.5
        0.5
        0.5
        0.5
        0.5
        0.5
        0.5
        0.5
        0.5
        0.5
        0.5
        0.5
        0.5
        0.5
        0.5
        0.5
        0.5
        0.5
        0.5
        0.5
        0.5
        0.5
        0.5
        0.5
        0.5
        0.5
        0.5
        0.5
        0.5
        0.5
        0.5
        0.5
        0.5
        0.5
        0.5
        0.5
        0.5
        0.5
        0.5
        0.5
        0.5
        0.5
        0.5
        0.5
        0.5
        0.5
        0.5
        0.5
        0.5
        0.5
        0.5
        0.5
        0.5
        0.5
        0.5
        0.5
        0.5
        0.5
        0.5
        0.5
        0.5
        0.5
        0.5
        0.5
        0.5
        0.5
        0.5
        0.5
        0.5
        0.5
        0.5
        0.5
        0.5
        0.5
        0.5
        0.5
        0.5
        0.5
        0.5
        0.5
        0.5
        0.5
      </DataArray>
    </PointData>
    <Points>
      <DataArray type="Float64" NumberOfComponents="3" format="ascii">
        -0.593377 -0.593377 -0.593377
        0.551171 -0.51881 -0.51881
        2 -0.52375 -0.52375
        3.44883 -0.51881 -0.51881
        4.59338 -0.593377 -0.593377
        -0.51881 0.551171 -0.51881
        0.620799 0.620799 -0.426436
        2 0.624493 -0.431791
        3.3792 0.620799 -0.426436
        4.51881 0.551171 -0.51881
        -0.52375 2 -0.52375
        0.624493 2 -0.431791
        2 2 -0.436496
        3.37551 2 -0.431791
        4.52375 2 -0.52375
        -0.51881 3.44883 -0.51881
        0.620799 3.3792 -0.426436
        2 3.37551 -0.431791
        3.3792 3.3792 -0.426436
        4.51881 3.44883 -0.51881
        -0.593377 4.59338 -0.593377
        0.551171 4.51881 -0.51881
        2 4.52375 -0.52375
        3.44883 4.51881 -0.51881
        4.59338 4.59338 -0.593377
        -0.51881 -0.51881 0.551171
        0.620799 -0.426436 0.620799
        2 -0.431791 0.624493
        3.3792 -0.426436 0.620799
        4.51881 -0.51881 0.551171
        -0.426436 0.620799 0.620799
        0.713158 0.713158 0.713158
        2 0.716431 0.716431
        3.28684 0.713158 0.713158
        4.42644 0.620799 0.620799
        -0.431791 2 0.624493
        0.716431 2 0.716431
        2 2 0.719797
        3.28357 2 0.716431
        4.43179 2 0.624493
        -0.426436 3.3792 0.620799
        0.713158 3.28684 0.713158
        2 3.28357 0.716431
        3.28684 3.28684 0.713158
        4.42644 3.3792 0.620799
        -0.51881 4.51881 0.551171
        0.620799 4.42644 0.620799
        2 4.43179 0.624493
        3.3792 4.42644 0.620799
        4.51881 4.51881 0.551171
        -0.52375 -0.52375 2
        0.624493 -0.431791 2
        2 -0.436496 2
        3.37551 -0.431791 2
        4.52375 -0.52375 2
        -0.431791 0.624493 2
        0.716431 0.716431 2
        2 0.719797 2
        3.28357 0.716431 2
        4.43179 0.624493 2
        -0.436496 2 2
        0.719797 2 2
        2 2 2
        3.2802 2 2
        4.4365 2 2
        -0.431791 3.37551 2
        0.716431 3.28357 2
        2 3.2802 2
        3.28357 3.28357 2
        4.43179 3.37551 2
        -0.52375 4.52375 2
        0.624493 4.43179 2
        2 4.4365 2
        3.37551 4.43179 2
        4.52375 4.52375 2
        -0.51881 -0.51881 3.44883
        0.620799 -0.426436 3.3792
        2 -0.431791 3.37551
        3.3792 -0.426436 3.3792
        4.51881 -0.51881 3.44883
        -0.426436 0.620799 3.3792
        0.713158 0.713158 3.28684
        2 0.716431 3.28357
        3.28684 0.713158 3.28684
        4.42644 0.620799 3.3792
        -0.431791 2 3.37551
        0.716431 2 3.28357
        2 2 3.2802
        3.28357 2 3.28357
        4.43179 2 3.37551
        -0.426436 3.3792 3.3792
        0.713158 3.28684 3.28684
        2 3.28357 3.28357
        3.28684 3.28684 3.28684
        4.42644 3.3792 3.3792
        -0.51881 4.51881 3.44883
        0.620799 4.42644 3.3792
        2 4.43179 3.37551
        3.3792 4.42644 3.3792
        4.51881 4.51881 3.44883
        -0.593377 -0.593377 4.59338
        0.551171 -0.51881 4.51881
        2 -0.52375 4.52375
        3.44883 -0.51881 4.51881
        4.59338 -0.593377 4.59338
        -0.51881 0.551171 4.51881
        0.620799 0.620799 4.42644
        2 0.624493 4.43179
        3.3792 0.620799 4.42644
        4.51881 0.551171 4.51881
        -0.52375 2 4.52375
        0.624493 2 4.43179
        2 2 4.4365
        3.37551 2 4.43179
        4.52375 2 4.52375
        -0.51881 3.44883 4.51881
        0.620799 3.3792 4.42644
        2 3.37551 4.43179
        3.3792 3.3792 4.42644
        4.51881 3.44883 4.51881
        -0.593377 4.59338 4.59338
        0.551171 4.51881 4.51881
        2 4.52375 4.52375
        3.44883 4.51881 4.51881
        4.59338 4.59338 4.59338
      </DataArray>
    </Points>
    <Cells>
      <DataArray type="Int32" Name="connectivity" format="ascii"/>
      <DataArray type="Int32" Name="offsets" format="ascii"/>
      <DataArray type="UInt8" Name="types" format="ascii"/>
    </Cells>
  </Piece>
  </UnstructuredGrid>
</VTKFile>
