<VTKFile type="UnstructuredGrid" version="0.1">
  <UnstructuredGrid>
  <Piece NumberOfPoints="125" NumberOfCells="0">
    <PointData Scalars="Radius">
      <DataArray type="Float64" Name="Radius" format="ascii">
        0.5
        0.5
        0.5
        0.5
        0.5
        0.5
        0.5
        0.5
        0.5
        0.5
        0.5
        0.5
        0.5
        0.5
        0.5
        0.5
        0.5
        0.5
        0.5
        0.5
        0.5
        0.5
        0.5
        0.5
        0.5
        0.5
        0.5
        0.5
        0.5
        0.5
        0.5
        0.5
        0.5
        0.5
        0.5
        0.5
        0.5
        0.5
        0.5
        0.5
        0.5
        0.5
        0.5
        0.5
        0.5
        0.5
        0.5
        0.5
        0.5
        0.5
        0.5
        0.5
        0.5
        0.5
        0.5
        0.5
        0.5
        0.5
        0.5
        0.5
        0.5
        0.5
        0.5
        0.5
        0.5
        0.5
        0.5
        0.5
        0.5
        0.5
        0.5
        0.5
        0.5
        0.5
        0.5
        0.5
        0.5
        0.5
        0.5
        0.5
        0.5
        0.5
        0.5
        0.5
        0.5
        0.5
        0.5
        0.5
        0.5
        0.5
        0.5
        0.5
        0.5
        0.5
        0.5
        0.5
        0.5
        0.5
        0.5
        0.5
        0.5
        0.5
        0.5
        0.5
        0.5
        0.5
        0.5
        0.5
        0.5
        0.5
        0.5
        0.5
        0.5
        0.5
        0.5
        0.5
        0.5
        0.5
        0.5
        0.5
        0.5
        0.5
        0.5
        0.5
        0.5
      </DataArray>
    </PointData>
    <Points>
      <DataArray type="Float64" NumberOfComponents="3" format="ascii">
        -0.751049 -0.751049 -0.751049
        0.304432 -0.573053 -0.573053
        2 -0.601013 -0.601013
        3.69557 -0.573053 -0.573053
        4.75105 -0.751049 -0.751049
        -0.573053 0.304432 -0.573053
        0.473375 0.473375 -0.342244
        2 0.470609 -0.381015
        3.52663 0.473375 -0.342244
        4.57305 0.304432 -0.573053
        -0.601013 2 -0.601013
        0.470609 2 -0.381015
        2 2 -0.408772
        3.52939 2 -0.381015
        4.60101 2 -0.601013
        -0.573053 3.69557 -0.573053
        0.473375 3.52663 -0.342244
        2 3.52939 -0.381015
        3.52663 3.52663 -0.342244
        4.57305 3.69557 -0.573053
        -0.751049 4.75105 -0.751049
        0.304432 4.57305 -0.573053
        2 4.60101 -0.601013
        3.69557 4.57305 -0.573053
        4.75105 4.75105 -0.751049
        -0.573053 -0.573053 0.304432
        0.473375 -0.342244 0.473375
        2 -0.381015 0.470609
        3.52663 -0.342244 0.473375
        4.57305 -0.573053 0.304432
        -0.342244 0.473375 0.473375
        0.69877 0.69877 0.69877
        2 0.693608 0.693608
        3.30123 0.69877 0.69877
        4.34224 0.473375 0.473375
        -0.381015 2 0.470609
        0.693608 2 0.693608
        2 2 0.695943
        3.30639 2 0.693608
        4.38101 2 0.470609
        -0.342244 3.52663 0.473375
        0.69877 3.30123 0.69877
        2 3.30639 0.693608
        3.30123 3.30123 0.69877
        4.34224 3.52663 0.473375
        -0.573053 4.57305 0.304432
        0.473375 4.34224 0.473375
        2 4.38101 0.470609
        3.52663 4.34224 0.473375
        4.57305 4.57305 0.304432
        -0.601013 -0.601013 2
        0.470609 -0.381015 2
        2 -0.408772 2
        3.52939 -0.381015 2
        4.60101 -0.601013 2
        -0.381015 0.470609 2
        0.693608 0.693608 2
        2 0.695943 2
        3.30639 0.693608 2
        4.38101 0.470609 2
        -0.408772 2 2
        0.695943 2 2
        2 2 2
        3.30406 2 2
        4.40877 2 2
        -0.381015 3.52939 2
        0.693608 3.30639 2
        2 3.30406 2
        3.30639 3.30639 2
        4.38101 3.52939 2
        -0.601013 4.60101 2
        0.470609 4.38101 2
        2 4.40877 2
        3.52939 4.38101 2
        4.60101 4.60101 2
        -0.573053 -0.573053 3.69557
        0.473375 -0.342244 3.52663
        2 -0.381015 3.52939
        3.52663 -0.342244 3.52663
        4.57305 -0.573053 3.69557
        -0.342244 0.473375 3.52663
        0.69877 0.69877 3.30123
        2 0.693608 3.30639
        3.30123 0.69877 3.30123
        4.34224 0.473375 3.52663
        -0.381015 2 3.52939
        0.693608 2 3.30639
        2 2 3.30406
        3.30639 2 3.30639
        4.38101 2 3.52939
        -0.342244 3.52663 3.52663
        0.69877 3.30123 3.30123
        2 3.30639 3.30639
        3.30123 3.30123 3.30123
        4.34224 3.52663 3.52663
        -0.573053 4.57305 3.69557
        0.473375 4.34224 3.52663
        2 4.38101 3.52939
        3.52663 4.34224 3.52663
        4.57305 4.57305 3.69557
        -0.751049 -0.751049 4.75105
        0.304432 -0.573053 4.57305
        2 -0.601013 4.60101
        3.69557 -0.573053 4.57305
        4.75105 -0.751049 4.75105
        -0.573053 0.304432 4.57305
        0.473375 0.473375 4.34224
        2 0.470609 4.38101
        3.52663 0.473375 4.34224
        4.57305 0.304432 4.57305
        -0.601013 2 4.60101
        0.470609 2 4.38101
        2 2 4.40877
        3.52939 2 4.38101
        4.60101 2 4.60101
        -0.573053 3.69557 4.57305
        0.473375 3.52663 4.34224
        2 3.52939 4.38101
        3.52663 3.52663 4.34224
        4.57305 3.69557 4.57305
        -0.751049 4.75105 4.75105
        0.304432 4.57305 4.57305
        2 4.60101 4.60101
        3.69557 4.57305 4.57305
        4.75105 4.75105 4.75105
      </DataArray>
    </Points>
    <Cells>
      <DataArray type="Int32" Name="connectivity" format="ascii"/>
      <DataArray type="Int32" Name="offsets" format="ascii"/>
      <DataArray type="UInt8" Name="types" format="ascii"/>
    </Cells>
  </Piece>
  </UnstructuredGrid>
</VTKFile>
