<VTKFile type="UnstructuredGrid" version="0.1">
  <UnstructuredGrid>
  <Piece NumberOfPoints="125" NumberOfCells="0">
    <PointData Scalars="Radius">
      <DataArray type="Float64" Name="Radius" format="ascii">
        0.5
        0.5
        0.5
        0.5
        0.5
        0.5
        0.5
        0.5
        0.5
        0.5
        0.5
        0.5
        0.5
        0.5
        0.5
        0.5
        0.5
        0.5
        0.5
        0.5
        0.5
        0.5
        0.5
        0.5
        0.5
        0.5
        0.5
        0.5
        0.5
        0.5
        0.5
        0.5
        0.5
        0.5
        0.5
        0.5
        0.5
        0.5
        0.5
        0.5
        0.5
        0.5
        0.5
        0.5
        0.5
        0.5
        0.5
        0.5
        0.5
        0.5
        0.5
        0.5
        0.5
        0.5
        0.5
        0.5
        0.5
        0.5
        0.5
        0.5
        0.5
        0.5
        0.5
        0.5
        0.5
        0.5
        0.5
        0.5
        0.5
        0.5
        0.5
        0.5
        0.5
        0.5
        0.5
        0.5
        0.5
        0.5
        0.5
        0.5
        0.5
        0.5
        0.5
        0.5
        0.5
        0.5
        0.5
        0.5
        0.5
        0.5
        0.5
        0.5
        0.5
        0.5
        0.5
        0.5
        0.5
        0.5
        0.5
        0.5
        0.5
        0.5
        0.5
        0.5
        0.5
        0.5
        0.5
        0.5
        0.5
        0.5
        0.5
        0.5
        0.5
        0.5
        0.5
        0.5
        0.5
        0.5
        0.5
        0.5
        0.5
        0.5
        0.5
        0.5
        0.5
      </DataArray>
    </PointData>
    <Points>
      <DataArray type="Float64" NumberOfComponents="3" format="ascii">
        -1.06721 -1.06721 -1.06721
        0.168035 -0.685641 -0.685641
        2.00005 -0.670838 -0.670838
        3.8094 -0.676881 -0.676881
        5.10809 -1.10809 -1.10809
        -0.685641 0.168035 -0.685641
        0.544846 0.544846 -0.283551
        2.00002 0.56952 -0.273314
        3.45481 0.545194 -0.283343
        4.67688 0.1906 -0.676881
        -0.670838 2.00005 -0.670838
        0.56952 2.00002 -0.273314
        2 2 -0.123757
        3.43049 2 -0.273315
        4.67083 2 -0.670834
        -0.676881 3.8094 -0.676881
        0.545194 3.45481 -0.283343
        2 3.43049 -0.273315
        3.45481 3.45481 -0.283343
        4.67688 3.8094 -0.676881
        -1.10809 5.10809 -1.10809
        0.1906 4.67688 -0.676881
        2 4.67083 -0.670834
        3.8094 4.67688 -0.676881
        5.10809 5.10809 -1.10809
        -0.685641 -0.685641 0.168035
        0.544846 -0.283551 0.544846
        2.00002 -0.273314 0.56952
        3.45481 -0.283343 0.545194
        4.67688 -0.676881 0.1906
        -0.283551 0.544846 0.544846
        0.940495 0.940495 0.940495
        2 0.956705 0.956705
        3.05952 0.94048 0.94048
        4.28334 0.545194 0.545194
        -0.273314 2.00002 0.56952
        0.956705 2 0.956705
        2 2 0.98947
        3.0433 2 0.956705
        4.27332 2 0.569514
        -0.283343 3.45481 0.545194
        0.94048 3.05952 0.94048
        2 3.0433 0.956705
        3.05952 3.05952 0.94048
        4.28334 3.45481 0.545194
        -0.676881 4.67688 0.1906
        0.545194 4.28334 0.545194
        2 4.27332 0.569514
        3.45481 4.28334 0.545194
        4.67688 4.67688 0.1906
        -0.670838 -0.670838 2.00005
        0.56952 -0.273314 2.00002
        2 -0.123757 2
        3.43049 -0.273315 2
        4.67083 -0.670834 2
        -0.273314 0.56952 2.00002
        0.956705 0.956705 2
        2 0.98947 2
        3.0433 0.956705 2
        4.27332 0.569514 2
        -0.123757 2 2
        0.98947 2 2
        2 2 2
        3.01053 2 2
        4.12376 2 2
        -0.273315 3.43049 2
        0.956705 3.0433 2
        2 3.01053 2
        3.0433 3.0433 2
        4.27332 3.43049 2
        -0.670834 4.67083 2
        0.569514 4.27332 2
        2 4.12376 2
        3.43049 4.27332 2
        4.67083 4.67083 2
        -0.676881 -0.676881 3.8094
        0.545194 -0.283343 3.45481
        2 -0.273315 3.43049
        3.45481 -0.283343 3.45481
        4.67688 -0.676881 3.8094
        -0.283343 0.545194 3.45481
        0.94048 0.94048 3.05952
        2 0.956705 3.0433
        3.05952 0.94048 3.05952
        4.28334 0.545194 3.45481
        -0.273315 2 3.43049
        0.956705 2 3.0433
        2 2 3.01053
        3.0433 2 3.0433
        4.27332 2 3.43049
        -0.283343 3.45481 3.45481
        0.94048 3.05952 3.05952
        2 3.0433 3.0433
        3.05952 3.05952 3.05952
        4.28334 3.45481 3.45481
        -0.676881 4.67688 3.8094
        0.545194 4.28334 3.45481
        2 4.27332 3.43049
        3.45481 4.28334 3.45481
        4.67688 4.67688 3.8094
        -1.10809 -1.10809 5.10809
        0.1906 -0.676881 4.67688
        2 -0.670834 4.67083
        3.8094 -0.676881 4.67688
        5.10809 -1.10809 5.10809
        -0.676881 0.1906 4.67688
        0.545194 0.545194 4.28334
        2 0.569514 4.27332
        3.45481 0.545194 4.28334
        4.67688 0.1906 4.67688
        -0.670834 2 4.67083
        0.569514 2 4.27332
        2 2 4.12376
        3.43049 2 4.27332
        4.67083 2 4.67083
        -0.676881 3.8094 4.67688
        0.545194 3.45481 4.28334
        2 3.43049 4.27332
        3.45481 3.45481 4.28334
        4.67688 3.8094 4.67688
        -1.10809 5.10809 5.10809
        0.1906 4.67688 4.67688
        2 4.67083 4.67083
        3.8094 4.67688 4.67688
        5.10809 5.10809 5.10809
      </DataArray>
    </Points>
    <Cells>
      <DataArray type="Int32" Name="connectivity" format="ascii"/>
      <DataArray type="Int32" Name="offsets" format="ascii"/>
      <DataArray type="UInt8" Name="types" format="ascii"/>
    </Cells>
  </Piece>
  </UnstructuredGrid>
</VTKFile>
