<VTKFile type="UnstructuredGrid" version="0.1">
  <UnstructuredGrid>
  <Piece NumberOfPoints="125" NumberOfCells="0">
    <PointData Scalars="Radius">
      <DataArray type="Float64" Name="Radius" format="ascii">
        0.5
        0.5
        0.5
        0.5
        0.5
        0.5
        0.5
        0.5
        0.5
        0.5
        0.5
        0.5
        0.5
        0.5
        0.5
        0.5
        0.5
        0.5
        0.5
        0.5
        0.5
        0.5
        0.5
        0.5
        0.5
        0.5
        0.5
        0.5
        0.5
        0.5
        0.5
        0.5
        0.5
        0.5
        0.5
        0.5
        0.5
        0.5
        0.5
        0.5
        0.5
        0.5
        0.5
        0.5
        0.5
        0.5
        0.5
        0.5
        0.5
        0.5
        0.5
        0.5
        0.5
        0.5
        0.5
        0.5
        0.5
        0.5
        0.5
        0.5
        0.5
        0.5
        0.5
        0.5
        0.5
        0.5
        0.5
        0.5
        0.5
        0.5
        0.5
        0.5
        0.5
        0.5
        0.5
        0.5
        0.5
        0.5
        0.5
        0.5
        0.5
        0.5
        0.5
        0.5
        0.5
        0.5
        0.5
        0.5
        0.5
        0.5
        0.5
        0.5
        0.5
        0.5
        0.5
        0.5
        0.5
        0.5
        0.5
        0.5
        0.5
        0.5
        0.5
        0.5
        0.5
        0.5
        0.5
        0.5
        0.5
        0.5
        0.5
        0.5
        0.5
        0.5
        0.5
        0.5
        0.5
        0.5
        0.5
        0.5
        0.5
        0.5
        0.5
        0.5
        0.5
      </DataArray>
    </PointData>
    <Points>
      <DataArray type="Float64" NumberOfComponents="3" format="ascii">
        -0.705739 -0.705739 -0.705739
        0.348926 -0.562497 -0.562497
        2 -0.583372 -0.583372
        3.65107 -0.562497 -0.562497
        4.70574 -0.705739 -0.705739
        -0.562497 0.348926 -0.562497
        0.492477 0.492477 -0.374679
        2 0.494897 -0.402119
        3.50752 0.492477 -0.374679
        4.5625 0.348926 -0.562497
        -0.583372 2 -0.583372
        0.494897 2 -0.402119
        2 2 -0.421951
        3.5051 2 -0.402119
        4.58337 2 -0.583372
        -0.562497 3.65107 -0.562497
        0.492477 3.50752 -0.374679
        2 3.5051 -0.402119
        3.50752 3.50752 -0.374679
        4.5625 3.65107 -0.562497
        -0.705739 4.70574 -0.705739
        0.348926 4.5625 -0.562497
        2 4.58337 -0.583372
        3.65107 4.5625 -0.562497
        4.70574 4.70574 -0.705739
        -0.562497 -0.562497 0.348926
        0.492477 -0.374679 0.492477
        2 -0.402119 0.494897
        3.50752 -0.374679 0.492477
        4.5625 -0.562497 0.348926
        -0.374679 0.492477 0.492477
        0.682962 0.682962 0.682962
        2 0.683758 0.683758
        3.31704 0.682962 0.682962
        4.37468 0.492477 0.492477
        -0.402119 2 0.494897
        0.683758 2 0.683758
        2 2 0.688479
        3.31624 2 0.683758
        4.40212 2 0.494897
        -0.374679 3.50752 0.492477
        0.682962 3.31704 0.682962
        2 3.31624 0.683758
        3.31704 3.31704 0.682962
        4.37468 3.50752 0.492477
        -0.562497 4.5625 0.348926
        0.492477 4.37468 0.492477
        2 4.40212 0.494897
        3.50752 4.37468 0.492477
        4.5625 4.5625 0.348926
        -0.583372 -0.583372 2
        0.494897 -0.402119 2
        2 -0.421951 2
        3.5051 -0.402119 2
        4.58337 -0.583372 2
        -0.402119 0.494897 2
        0.683758 0.683758 2
        2 0.688479 2
        3.31624 0.683758 2
        4.40212 0.494897 2
        -0.421951 2 2
        0.688479 2 2
        2 2 2
        3.31152 2 2
        4.42195 2 2
        -0.402119 3.5051 2
        0.683758 3.31624 2
        2 3.31152 2
        3.31624 3.31624 2
        4.40212 3.5051 2
        -0.583372 4.58337 2
        0.494897 4.40212 2
        2 4.42195 2
        3.5051 4.40212 2
        4.58337 4.58337 2
        -0.562497 -0.562497 3.65107
        0.492477 -0.374679 3.50752
        2 -0.402119 3.5051
        3.50752 -0.374679 3.50752
        4.5625 -0.562497 3.65107
        -0.374679 0.492477 3.50752
        0.682962 0.682962 3.31704
        2 0.683758 3.31624
        3.31704 0.682962 3.31704
        4.37468 0.492477 3.50752
        -0.402119 2 3.5051
        0.683758 2 3.31624
        2 2 3.31152
        3.31624 2 3.31624
        4.40212 2 3.5051
        -0.374679 3.50752 3.50752
        0.682962 3.31704 3.31704
        2 3.31624 3.31624
        3.31704 3.31704 3.31704
        4.37468 3.50752 3.50752
        -0.562497 4.5625 3.65107
        0.492477 4.37468 3.50752
        2 4.40212 3.5051
        3.50752 4.37468 3.50752
        4.5625 4.5625 3.65107
        -0.705739 -0.705739 4.70574
        0.348926 -0.562497 4.5625
        2 -0.583372 4.58337
        3.65107 -0.562497 4.5625
        4.70574 -0.705739 4.70574
        -0.562497 0.348926 4.5625
        0.492477 0.492477 4.37468
        2 0.494897 4.40212
        3.50752 0.492477 4.37468
        4.5625 0.348926 4.5625
        -0.583372 2 4.58337
        0.494897 2 4.40212
        2 2 4.42195
        3.5051 2 4.40212
        4.58337 2 4.58337
        -0.562497 3.65107 4.5625
        0.492477 3.50752 4.37468
        2 3.5051 4.40212
        3.50752 3.50752 4.37468
        4.5625 3.65107 4.5625
        -0.705739 4.70574 4.70574
        0.348926 4.5625 4.5625
        2 4.58337 4.58337
        3.65107 4.5625 4.5625
        4.70574 4.70574 4.70574
      </DataArray>
    </Points>
    <Cells>
      <DataArray type="Int32" Name="connectivity" format="ascii"/>
      <DataArray type="Int32" Name="offsets" format="ascii"/>
      <DataArray type="UInt8" Name="types" format="ascii"/>
    </Cells>
  </Piece>
  </UnstructuredGrid>
</VTKFile>
