<VTKFile type="UnstructuredGrid" version="0.1">
  <UnstructuredGrid>
  <Piece NumberOfPoints="125" NumberOfCells="0">
    <PointData Scalars="Radius">
      <DataArray type="Float64" Name="Radius" format="ascii">
        0.5
        0.5
        0.5
        0.5
        0.5
        0.5
        0.5
        0.5
        0.5
        0.5
        0.5
        0.5
        0.5
        0.5
        0.5
        0.5
        0.5
        0.5
        0.5
        0.5
        0.5
        0.5
        0.5
        0.5
        0.5
        0.5
        0.5
        0.5
        0.5
        0.5
        0.5
        0.5
        0.5
        0.5
        0.5
        0.5
        0.5
        0.5
        0.5
        0.5
        0.5
        0.5
        0.5
        0.5
        0.5
        0.5
        0.5
        0.5
        0.5
        0.5
        0.5
        0.5
        0.5
        0.5
        0.5
        0.5
        0.5
        0.5
        0.5
        0.5
        0.5
        0.5
        0.5
        0.5
        0.5
        0.5
        0.5
        0.5
        0.5
        0.5
        0.5
        0.5
        0.5
        0.5
        0.5
        0.5
        0.5
        0.5
        0.5
        0.5
        0.5
        0.5
        0.5
        0.5
        0.5
        0.5
        0.5
        0.5
        0.5
        0.5
        0.5
        0.5
        0.5
        0.5
        0.5
        0.5
        0.5
        0.5
        0.5
        0.5
        0.5
        0.5
        0.5
        0.5
        0.5
        0.5
        0.5
        0.5
        0.5
        0.5
        0.5
        0.5
        0.5
        0.5
        0.5
        0.5
        0.5
        0.5
        0.5
        0.5
        0.5
        0.5
        0.5
        0.5
        0.5
      </DataArray>
    </PointData>
    <Points>
      <DataArray type="Float64" NumberOfComponents="3" format="ascii">
        -0.513496 -0.513496 -0.513496
        0.656387 -0.458625 -0.458625
        2 -0.459485 -0.459485
        3.34361 -0.458625 -0.458625
        4.5135 -0.513496 -0.513496
        -0.458625 0.656387 -0.458625
        0.698658 0.698658 -0.392993
        2 0.700662 -0.394217
        3.30134 0.698658 -0.392993
        4.45863 0.656387 -0.458625
        -0.459485 2 -0.459485
        0.700662 2 -0.394217
        2 2 -0.395451
        3.29934 2 -0.394217
        4.45949 2 -0.459485
        -0.458625 3.34361 -0.458625
        0.698658 3.30134 -0.392993
        2 3.29934 -0.394217
        3.30134 3.30134 -0.392993
        4.45863 3.34361 -0.458625
        -0.513496 4.5135 -0.513496
        0.656387 4.45863 -0.458625
        2 4.45949 -0.459485
        3.34361 4.45863 -0.458625
        4.5135 4.5135 -0.513496
        -0.458625 -0.458625 0.656387
        0.698658 -0.392993 0.698658
        2 -0.394217 0.700662
        3.30134 -0.392993 0.698658
        4.45863 -0.458625 0.656387
        -0.392993 0.698658 0.698658
        0.7552 0.7552 0.7552
        2 0.757248 0.757248
        3.2448 0.7552 0.7552
        4.39299 0.698658 0.698658
        -0.394217 2 0.700662
        0.757248 2 0.757248
        2 2 0.759241
        3.24275 2 0.757248
        4.39422 2 0.700662
        -0.392993 3.30134 0.698658
        0.7552 3.2448 0.7552
        2 3.24275 0.757248
        3.2448 3.2448 0.7552
        4.39299 3.30134 0.698658
        -0.458625 4.45863 0.656387
        0.698658 4.39299 0.698658
        2 4.39422 0.700662
        3.30134 4.39299 0.698658
        4.45863 4.45863 0.656387
        -0.459485 -0.459485 2
        0.700662 -0.394217 2
        2 -0.395451 2
        3.29934 -0.394217 2
        4.45949 -0.459485 2
        -0.394217 0.700662 2
        0.757248 0.757248 2
        2 0.759241 2
        3.24275 0.757248 2
        4.39422 0.700662 2
        -0.395451 2 2
        0.759241 2 2
        2 2 2
        3.24076 2 2
        4.39545 2 2
        -0.394217 3.29934 2
        0.757248 3.24275 2
        2 3.24076 2
        3.24275 3.24275 2
        4.39422 3.29934 2
        -0.459485 4.45949 2
        0.700662 4.39422 2
        2 4.39545 2
        3.29934 4.39422 2
        4.45949 4.45949 2
        -0.458625 -0.458625 3.34361
        0.698658 -0.392993 3.30134
        2 -0.394217 3.29934
        3.30134 -0.392993 3.30134
        4.45863 -0.458625 3.34361
        -0.392993 0.698658 3.30134
        0.7552 0.7552 3.2448
        2 0.757248 3.24275
        3.2448 0.7552 3.2448
        4.39299 0.698658 3.30134
        -0.394217 2 3.29934
        0.757248 2 3.24275
        2 2 3.24076
        3.24275 2 3.24275
        4.39422 2 3.29934
        -0.392993 3.30134 3.30134
        0.7552 3.2448 3.2448
        2 3.24275 3.24275
        3.2448 3.2448 3.2448
        4.39299 3.30134 3.30134
        -0.458625 4.45863 3.34361
        0.698658 4.39299 3.30134
        2 4.39422 3.29934
        3.30134 4.39299 3.30134
        4.45863 4.45863 3.34361
        -0.513496 -0.513496 4.5135
        0.656387 -0.458625 4.45863
        2 -0.459485 4.45949
        3.34361 -0.458625 4.45863
        4.5135 -0.513496 4.5135
        -0.458625 0.656387 4.45863
        0.698658 0.698658 4.39299
        2 0.700662 4.39422
        3.30134 0.698658 4.39299
        4.45863 0.656387 4.45863
        -0.459485 2 4.45949
        0.700662 2 4.39422
        2 2 4.39545
        3.29934 2 4.39422
        4.45949 2 4.45949
        -0.458625 3.34361 4.45863
        0.698658 3.30134 4.39299
        2 3.29934 4.39422
        3.30134 3.30134 4.39299
        4.45863 3.34361 4.45863
        -0.513496 4.5135 4.5135
        0.656387 4.45863 4.45863
        2 4.45949 4.45949
        3.34361 4.45863 4.45863
        4.5135 4.5135 4.5135
      </DataArray>
    </Points>
    <Cells>
      <DataArray type="Int32" Name="connectivity" format="ascii"/>
      <DataArray type="Int32" Name="offsets" format="ascii"/>
      <DataArray type="UInt8" Name="types" format="ascii"/>
    </Cells>
  </Piece>
  </UnstructuredGrid>
</VTKFile>
