<VTKFile type="UnstructuredGrid" version="0.1">
  <UnstructuredGrid>
  <Piece NumberOfPoints="125" NumberOfCells="0">
    <PointData Scalars="Radius">
      <DataArray type="Float64" Name="Radius" format="ascii">
        0.5
        0.5
        0.5
        0.5
        0.5
        0.5
        0.5
        0.5
        0.5
        0.5
        0.5
        0.5
        0.5
        0.5
        0.5
        0.5
        0.5
        0.5
        0.5
        0.5
        0.5
        0.5
        0.5
        0.5
        0.5
        0.5
        0.5
        0.5
        0.5
        0.5
        0.5
        0.5
        0.5
        0.5
        0.5
        0.5
        0.5
        0.5
        0.5
        0.5
        0.5
        0.5
        0.5
        0.5
        0.5
        0.5
        0.5
        0.5
        0.5
        0.5
        0.5
        0.5
        0.5
        0.5
        0.5
        0.5
        0.5
        0.5
        0.5
        0.5
        0.5
        0.5
        0.5
        0.5
        0.5
        0.5
        0.5
        0.5
        0.5
        0.5
        0.5
        0.5
        0.5
        0.5
        0.5
        0.5
        0.5
        0.5
        0.5
        0.5
        0.5
        0.5
        0.5
        0.5
        0.5
        0.5
        0.5
        0.5
        0.5
        0.5
        0.5
        0.5
        0.5
        0.5
        0.5
        0.5
        0.5
        0.5
        0.5
        0.5
        0.5
        0.5
        0.5
        0.5
        0.5
        0.5
        0.5
        0.5
        0.5
        0.5
        0.5
        0.5
        0.5
        0.5
        0.5
        0.5
        0.5
        0.5
        0.5
        0.5
        0.5
        0.5
        0.5
        0.5
        0.5
      </DataArray>
    </PointData>
    <Points>
      <DataArray type="Float64" NumberOfComponents="3" format="ascii">
        -0.453295 -0.453295 -0.453295
        0.713252 -0.408246 -0.408246
        2 -0.407723 -0.407723
        3.28675 -0.408246 -0.408246
        4.4533 -0.453295 -0.453295
        -0.408246 0.713252 -0.408246
        0.743587 0.743587 -0.354939
        2 0.744984 -0.354662
        3.25641 0.743587 -0.354939
        4.40825 0.713252 -0.408246
        -0.407723 2 -0.407723
        0.744984 2 -0.354662
        2 2 -0.354492
        3.25502 2 -0.354662
        4.40772 2 -0.407723
        -0.408246 3.28675 -0.408246
        0.743587 3.25641 -0.354939
        2 3.25502 -0.354662
        3.25641 3.25641 -0.354939
        4.40825 3.28675 -0.408246
        -0.453295 4.4533 -0.453295
        0.713252 4.40825 -0.408246
        2 4.40772 -0.407723
        3.28675 4.40825 -0.408246
        4.4533 4.4533 -0.453295
        -0.408246 -0.408246 0.713252
        0.743587 -0.354939 0.743587
        2 -0.354662 0.744984
        3.25641 -0.354939 0.743587
        4.40825 -0.408246 0.713252
        -0.354939 0.743587 0.743587
        0.784183 0.784183 0.784183
        2 0.785756 0.785756
        3.21582 0.784183 0.784183
        4.35494 0.743587 0.743587
        -0.354662 2 0.744984
        0.785756 2 0.785756
        2 2 0.787277
        3.21424 2 0.785756
        4.35466 2 0.744984
        -0.354939 3.25641 0.743587
        0.784183 3.21582 0.784183
        2 3.21424 0.785756
        3.21582 3.21582 0.784183
        4.35494 3.25641 0.743587
        -0.408246 4.40825 0.713252
        0.743587 4.35494 0.743587
        2 4.35466 0.744984
        3.25641 4.35494 0.743587
        4.40825 4.40825 0.713252
        -0.407723 -0.407723 2
        0.744984 -0.354662 2
        2 -0.354492 2
        3.25502 -0.354662 2
        4.40772 -0.407723 2
        -0.354662 0.744984 2
        0.785756 0.785756 2
        2 0.787277 2
        3.21424 0.785756 2
        4.35466 0.744984 2
        -0.354492 2 2
        0.787277 2 2
        2 2 2
        3.21272 2 2
        4.35449 2 2
        -0.354662 3.25502 2
        0.785756 3.21424 2
        2 3.21272 2
        3.21424 3.21424 2
        4.35466 3.25502 2
        -0.407723 4.40772 2
        0.744984 4.35466 2
        2 4.35449 2
        3.25502 4.35466 2
        4.40772 4.40772 2
        -0.408246 -0.408246 3.28675
        0.743587 -0.354939 3.25641
        2 -0.354662 3.25502
        3.25641 -0.354939 3.25641
        4.40825 -0.408246 3.28675
        -0.354939 0.743587 3.25641
        0.784183 0.784183 3.21582
        2 0.785756 3.21424
        3.21582 0.784183 3.21582
        4.35494 0.743587 3.25641
        -0.354662 2 3.25502
        0.785756 2 3.21424
        2 2 3.21272
        3.21424 2 3.21424
        4.35466 2 3.25502
        -0.354939 3.25641 3.25641
        0.784183 3.21582 3.21582
        2 3.21424 3.21424
        3.21582 3.21582 3.21582
        4.35494 3.25641 3.25641
        -0.408246 4.40825 3.28675
        0.743587 4.35494 3.25641
        2 4.35466 3.25502
        3.25641 4.35494 3.25641
        4.40825 4.40825 3.28675
        -0.453295 -0.453295 4.4533
        0.713252 -0.408246 4.40825
        2 -0.407723 4.40772
        3.28675 -0.408246 4.40825
        4.4533 -0.453295 4.4533
        -0.408246 0.713252 4.40825
        0.743587 0.743587 4.35494
        2 0.744984 4.35466
        3.25641 0.743587 4.35494
        4.40825 0.713252 4.40825
        -0.407723 2 4.40772
        0.744984 2 4.35466
        2 2 4.35449
        3.25502 2 4.35466
        4.40772 2 4.40772
        -0.408246 3.28675 4.40825
        0.743587 3.25641 4.35494
        2 3.25502 4.35466
        3.25641 3.25641 4.35494
        4.40825 3.28675 4.40825
        -0.453295 4.4533 4.4533
        0.713252 4.40825 4.40825
        2 4.40772 4.40772
        3.28675 4.40825 4.40825
        4.4533 4.4533 4.4533
      </DataArray>
    </Points>
    <Cells>
      <DataArray type="Int32" Name="connectivity" format="ascii"/>
      <DataArray type="Int32" Name="offsets" format="ascii"/>
      <DataArray type="UInt8" Name="types" format="ascii"/>
    </Cells>
  </Piece>
  </UnstructuredGrid>
</VTKFile>
