<VTKFile type="UnstructuredGrid" version="0.1">
  <UnstructuredGrid>
  <Piece NumberOfPoints="125" NumberOfCells="0">
    <PointData Scalars="Radius">
      <DataArray type="Float64" Name="Radius" format="ascii">
        0.5
        0.5
        0.5
        0.5
        0.5
        0.5
        0.5
        0.5
        0.5
        0.5
        0.5
        0.5
        0.5
        0.5
        0.5
        0.5
        0.5
        0.5
        0.5
        0.5
        0.5
        0.5
        0.5
        0.5
        0.5
        0.5
        0.5
        0.5
        0.5
        0.5
        0.5
        0.5
        0.5
        0.5
        0.5
        0.5
        0.5
        0.5
        0.5
        0.5
        0.5
        0.5
        0.5
        0.5
        0.5
        0.5
        0.5
        0.5
        0.5
        0.5
        0.5
        0.5
        0.5
        0.5
        0.5
        0.5
        0.5
        0.5
        0.5
        0.5
        0.5
        0.5
        0.5
        0.5
        0.5
        0.5
        0.5
        0.5
        0.5
        0.5
        0.5
        0.5
        0.5
        0.5
        0.5
        0.5
        0.5
        0.5
        0.5
        0.5
        0.5
        0.5
        0.5
        0.5
        0.5
        0.5
        0.5
        0.5
        0.5
        0.5
        0.5
        0.5
        0.5
        0.5
        0.5
        0.5
        0.5
        0.5
        0.5
        0.5
        0.5
        0.5
        0.5
        0.5
        0.5
        0.5
        0.5
        0.5
        0.5
        0.5
        0.5
        0.5
        0.5
        0.5
        0.5
        0.5
        0.5
        0.5
        0.5
        0.5
        0.5
        0.5
        0.5
        0.5
        0.5
      </DataArray>
    </PointData>
    <Points>
      <DataArray type="Float64" NumberOfComponents="3" format="ascii">
        -1.07415 -1.07415 -1.07415
        0.166238 -0.6811 -0.6811
        2.00032 -0.625203 -0.625203
        3.78105 -0.659629 -0.659629
        5.16956 -1.16956 -1.16956
        -0.6811 0.166238 -0.6811
        0.54651 0.54651 -0.233822
        2.00008 0.619814 -0.214483
        3.45341 0.546588 -0.233584
        4.65963 0.218948 -0.659629
        -0.625203 2.00032 -0.625203
        0.619814 2.00008 -0.214483
        2 2 -0.00560717
        3.38023 2 -0.214492
        4.62518 2 -0.625184
        -0.659629 3.78105 -0.659629
        0.546588 3.45341 -0.233584
        2 3.38023 -0.214492
        3.45341 3.45341 -0.233584
        4.65963 3.78105 -0.659629
        -1.16956 5.16956 -1.16956
        0.218948 4.65963 -0.659629
        2 4.62518 -0.625184
        3.78105 4.65963 -0.659629
        5.16956 5.16956 -1.16956
        -0.6811 -0.6811 0.166238
        0.54651 -0.233822 0.54651
        2.00008 -0.214483 0.619814
        3.45341 -0.233584 0.546588
        4.65963 -0.659629 0.218948
        -0.233822 0.54651 0.54651
        0.89671 0.89671 0.89671
        2.00002 0.929983 0.929983
        3.10336 0.89664 0.89664
        4.23358 0.546588 0.546588
        -0.214483 2.00008 0.619814
        0.929983 2.00002 0.929983
        2 2 0.984006
        3.07002 2 0.929981
        4.21449 2 0.619775
        -0.233584 3.45341 0.546588
        0.89664 3.10336 0.89664
        2 3.07002 0.929981
        3.10336 3.10336 0.896641
        4.23358 3.45341 0.546588
        -0.659629 4.65963 0.218948
        0.546588 4.23358 0.546588
        2 4.21449 0.619775
        3.45341 4.23358 0.546588
        4.65963 4.65963 0.218948
        -0.625203 -0.625203 2.00032
        0.619814 -0.214483 2.00008
        2 -0.00560717 2
        3.38023 -0.214492 2
        4.62518 -0.625184 2
        -0.214483 0.619814 2.00008
        0.929983 0.929983 2.00002
        2 0.984006 2
        3.07002 0.929981 2
        4.21449 0.619775 2
        -0.00560717 2 2
        0.984006 2 2
        2 2 2
        3.01599 2 2
        4.00561 2 2
        -0.214492 3.38023 2
        0.929981 3.07002 2
        2 3.01599 2
        3.07002 3.07002 2
        4.21449 3.38023 2
        -0.625184 4.62518 2
        0.619775 4.21449 2
        2 4.00561 2
        3.38023 4.21449 2
        4.62518 4.62518 2
        -0.659629 -0.659629 3.78105
        0.546588 -0.233584 3.45341
        2 -0.214492 3.38023
        3.45341 -0.233584 3.45341
        4.65963 -0.659629 3.78105
        -0.233584 0.546588 3.45341
        0.89664 0.89664 3.10336
        2 0.929981 3.07002
        3.10336 0.896641 3.10336
        4.23358 0.546588 3.45341
        -0.214492 2 3.38023
        0.929981 2 3.07002
        2 2 3.01599
        3.07002 2 3.07002
        4.21449 2 3.38023
        -0.233584 3.45341 3.45341
        0.896641 3.10336 3.10336
        2 3.07002 3.07002
        3.10336 3.10336 3.10336
        4.23358 3.45341 3.45341
        -0.659629 4.65963 3.78105
        0.546588 4.23358 3.45341
        2 4.21449 3.38023
        3.45341 4.23358 3.45341
        4.65963 4.65963 3.78105
        -1.16956 -1.16956 5.16956
        0.218948 -0.659629 4.65963
        2 -0.625184 4.62518
        3.78105 -0.659629 4.65963
        5.16956 -1.16956 5.16956
        -0.659629 0.218948 4.65963
        0.546588 0.546588 4.23358
        2 0.619775 4.21449
        3.45341 0.546588 4.23358
        4.65963 0.218948 4.65963
        -0.625184 2 4.62518
        0.619775 2 4.21449
        2 2 4.00561
        3.38023 2 4.21449
        4.62518 2 4.62518
        -0.659629 3.78105 4.65963
        0.546588 3.45341 4.23358
        2 3.38023 4.21449
        3.45341 3.45341 4.23358
        4.65963 3.78105 4.65963
        -1.16956 5.16956 5.16956
        0.218948 4.65963 4.65963
        2 4.62518 4.62518
        3.78105 4.65963 4.65963
        5.16956 5.16956 5.16956
      </DataArray>
    </Points>
    <Cells>
      <DataArray type="Int32" Name="connectivity" format="ascii"/>
      <DataArray type="Int32" Name="offsets" format="ascii"/>
      <DataArray type="UInt8" Name="types" format="ascii"/>
    </Cells>
  </Piece>
  </UnstructuredGrid>
</VTKFile>
