<VTKFile type="UnstructuredGrid" version="0.1">
  <UnstructuredGrid>
  <Piece NumberOfPoints="125" NumberOfCells="0">
    <PointData Scalars="Radius">
      <DataArray type="Float64" Name="Radius" format="ascii">
        0.5
        0.5
        0.5
        0.5
        0.5
        0.5
        0.5
        0.5
        0.5
        0.5
        0.5
        0.5
        0.5
        0.5
        0.5
        0.5
        0.5
        0.5
        0.5
        0.5
        0.5
        0.5
        0.5
        0.5
        0.5
        0.5
        0.5
        0.5
        0.5
        0.5
        0.5
        0.5
        0.5
        0.5
        0.5
        0.5
        0.5
        0.5
        0.5
        0.5
        0.5
        0.5
        0.5
        0.5
        0.5
        0.5
        0.5
        0.5
        0.5
        0.5
        0.5
        0.5
        0.5
        0.5
        0.5
        0.5
        0.5
        0.5
        0.5
        0.5
        0.5
        0.5
        0.5
        0.5
        0.5
        0.5
        0.5
        0.5
        0.5
        0.5
        0.5
        0.5
        0.5
        0.5
        0.5
        0.5
        0.5
        0.5
        0.5
        0.5
        0.5
        0.5
        0.5
        0.5
        0.5
        0.5
        0.5
        0.5
        0.5
        0.5
        0.5
        0.5
        0.5
        0.5
        0.5
        0.5
        0.5
        0.5
        0.5
        0.5
        0.5
        0.5
        0.5
        0.5
        0.5
        0.5
        0.5
        0.5
        0.5
        0.5
        0.5
        0.5
        0.5
        0.5
        0.5
        0.5
        0.5
        0.5
        0.5
        0.5
        0.5
        0.5
        0.5
        0.5
        0.5
      </DataArray>
    </PointData>
    <Points>
      <DataArray type="Float64" NumberOfComponents="3" format="ascii">
        -0.300764 -0.300764 -0.300764
        0.831314 -0.274037 -0.274037
        2 -0.272474 -0.272474
        3.16869 -0.274037 -0.274037
        4.30076 -0.300764 -0.300764
        -0.274037 0.831314 -0.274037
        0.844282 0.844282 -0.24236
        2 0.844879 -0.240704
        3.15572 0.844282 -0.24236
        4.27404 0.831314 -0.274037
        -0.272474 2 -0.272474
        0.844879 2 -0.240704
        2 2 -0.239103
        3.15512 2 -0.240704
        4.27247 2 -0.272474
        -0.274037 3.16869 -0.274037
        0.844282 3.15572 -0.24236
        2 3.15512 -0.240704
        3.15572 3.15572 -0.24236
        4.27404 3.16869 -0.274037
        -0.300764 4.30076 -0.300764
        0.831314 4.27404 -0.274037
        2 4.27247 -0.272474
        3.16869 4.27404 -0.274037
        4.30076 4.30076 -0.300764
        -0.274037 -0.274037 0.831314
        0.844282 -0.24236 0.844282
        2 -0.240704 0.844879
        3.15572 -0.24236 0.844282
        4.27404 -0.274037 0.831314
        -0.24236 0.844282 0.844282
        0.861202 0.861202 0.861202
        2 0.861952 0.861952
        3.1388 0.861202 0.861202
        4.24236 0.844282 0.844282
        -0.240704 2 0.844879
        0.861952 2 0.861952
        2 2 0.862706
        3.13805 2 0.861952
        4.2407 2 0.844879
        -0.24236 3.15572 0.844282
        0.861202 3.1388 0.861202
        2 3.13805 0.861952
        3.1388 3.1388 0.861202
        4.24236 3.15572 0.844282
        -0.274037 4.27404 0.831314
        0.844282 4.24236 0.844282
        2 4.2407 0.844879
        3.15572 4.24236 0.844282
        4.27404 4.27404 0.831314
        -0.272474 -0.272474 2
        0.844879 -0.240704 2
        2 -0.239103 2
        3.15512 -0.240704 2
        4.27247 -0.272474 2
        -0.240704 0.844879 2
        0.861952 0.861952 2
        2 0.862706 2
        3.13805 0.861952 2
        4.2407 0.844879 2
        -0.239103 2 2
        0.862706 2 2
        2 2 2
        3.13729 2 2
        4.2391 2 2
        -0.240704 3.15512 2
        0.861952 3.13805 2
        2 3.13729 2
        3.13805 3.13805 2
        4.2407 3.15512 2
        -0.272474 4.27247 2
        0.844879 4.2407 2
        2 4.2391 2
        3.15512 4.2407 2
        4.27247 4.27247 2
        -0.274037 -0.274037 3.16869
        0.844282 -0.24236 3.15572
        2 -0.240704 3.15512
        3.15572 -0.24236 3.15572
        4.27404 -0.274037 3.16869
        -0.24236 0.844282 3.15572
        0.861202 0.861202 3.1388
        2 0.861952 3.13805
        3.1388 0.861202 3.1388
        4.24236 0.844282 3.15572
        -0.240704 2 3.15512
        0.861952 2 3.13805
        2 2 3.13729
        3.13805 2 3.13805
        4.2407 2 3.15512
        -0.24236 3.15572 3.15572
        0.861202 3.1388 3.1388
        2 3.13805 3.13805
        3.1388 3.1388 3.1388
        4.24236 3.15572 3.15572
        -0.274037 4.27404 3.16869
        0.844282 4.24236 3.15572
        2 4.2407 3.15512
        3.15572 4.24236 3.15572
        4.27404 4.27404 3.16869
        -0.300764 -0.300764 4.30076
        0.831314 -0.274037 4.27404
        2 -0.272474 4.27247
        3.16869 -0.274037 4.27404
        4.30076 -0.300764 4.30076
        -0.274037 0.831314 4.27404
        0.844282 0.844282 4.24236
        2 0.844879 4.2407
        3.15572 0.844282 4.24236
        4.27404 0.831314 4.27404
        -0.272474 2 4.27247
        0.844879 2 4.2407
        2 2 4.2391
        3.15512 2 4.2407
        4.27247 2 4.27247
        -0.274037 3.16869 4.27404
        0.844282 3.15572 4.24236
        2 3.15512 4.2407
        3.15572 3.15572 4.24236
        4.27404 3.16869 4.27404
        -0.300764 4.30076 4.30076
        0.831314 4.27404 4.27404
        2 4.27247 4.27247
        3.16869 4.27404 4.27404
        4.30076 4.30076 4.30076
      </DataArray>
    </Points>
    <Cells>
      <DataArray type="Int32" Name="connectivity" format="ascii"/>
      <DataArray type="Int32" Name="offsets" format="ascii"/>
      <DataArray type="UInt8" Name="types" format="ascii"/>
    </Cells>
  </Piece>
  </UnstructuredGrid>
</VTKFile>
