<VTKFile type="UnstructuredGrid" version="0.1">
  <UnstructuredGrid>
  <Piece NumberOfPoints="125" NumberOfCells="0">
    <PointData Scalars="Radius">
      <DataArray type="Float64" Name="Radius" format="ascii">
        0.5
        0.5
        0.5
        0.5
        0.5
        0.5
        0.5
        0.5
        0.5
        0.5
        0.5
        0.5
        0.5
        0.5
        0.5
        0.5
        0.5
        0.5
        0.5
        0.5
        0.5
        0.5
        0.5
        0.5
        0.5
        0.5
        0.5
        0.5
        0.5
        0.5
        0.5
        0.5
        0.5
        0.5
        0.5
        0.5
        0.5
        0.5
        0.5
        0.5
        0.5
        0.5
        0.5
        0.5
        0.5
        0.5
        0.5
        0.5
        0.5
        0.5
        0.5
        0.5
        0.5
        0.5
        0.5
        0.5
        0.5
        0.5
        0.5
        0.5
        0.5
        0.5
        0.5
        0.5
        0.5
        0.5
        0.5
        0.5
        0.5
        0.5
        0.5
        0.5
        0.5
        0.5
        0.5
        0.5
        0.5
        0.5
        0.5
        0.5
        0.5
        0.5
        0.5
        0.5
        0.5
        0.5
        0.5
        0.5
        0.5
        0.5
        0.5
        0.5
        0.5
        0.5
        0.5
        0.5
        0.5
        0.5
        0.5
        0.5
        0.5
        0.5
        0.5
        0.5
        0.5
        0.5
        0.5
        0.5
        0.5
        0.5
        0.5
        0.5
        0.5
        0.5
        0.5
        0.5
        0.5
        0.5
        0.5
        0.5
        0.5
        0.5
        0.5
        0.5
        0.5
      </DataArray>
    </PointData>
    <Points>
      <DataArray type="Float64" NumberOfComponents="3" format="ascii">
        -0.64902 -0.64902 -0.64902
        0.437751 -0.54755 -0.54755
        2 -0.559487 -0.559487
        3.56225 -0.54755 -0.54755
        4.64902 -0.64902 -0.64902
        -0.54755 0.437751 -0.54755
        0.544111 0.544111 -0.4155
        2 0.549458 -0.428964
        3.45589 0.544111 -0.4155
        4.54755 0.437751 -0.54755
        -0.559487 2 -0.559487
        0.549458 2 -0.428964
        2 2 -0.439543
        3.45054 2 -0.428964
        4.55949 2 -0.559487
        -0.54755 3.56225 -0.54755
        0.544111 3.45589 -0.4155
        2 3.45054 -0.428964
        3.45589 3.45589 -0.4155
        4.54755 3.56225 -0.54755
        -0.64902 4.64902 -0.64902
        0.437751 4.54755 -0.54755
        2 4.55949 -0.559487
        3.56225 4.54755 -0.54755
        4.64902 4.64902 -0.64902
        -0.54755 -0.54755 0.437751
        0.544111 -0.4155 0.544111
        2 -0.428964 0.549458
        3.45589 -0.4155 0.544111
        4.54755 -0.54755 0.437751
        -0.4155 0.544111 0.544111
        0.684064 0.684064 0.684064
        2 0.688283 0.688283
        3.31594 0.684064 0.684064
        4.4155 0.544111 0.544111
        -0.428964 2 0.549458
        0.688283 2 0.688283
        2 2 0.693455
        3.31172 2 0.688283
        4.42896 2 0.549458
        -0.4155 3.45589 0.544111
        0.684064 3.31594 0.684064
        2 3.31172 0.688283
        3.31594 3.31594 0.684064
        4.4155 3.45589 0.544111
        -0.54755 4.54755 0.437751
        0.544111 4.4155 0.544111
        2 4.42896 0.549458
        3.45589 4.4155 0.544111
        4.54755 4.54755 0.437751
        -0.559487 -0.559487 2
        0.549458 -0.428964 2
        2 -0.439543 2
        3.45054 -0.428964 2
        4.55949 -0.559487 2
        -0.428964 0.549458 2
        0.688283 0.688283 2
        2 0.693455 2
        3.31172 0.688283 2
        4.42896 0.549458 2
        -0.439543 2 2
        0.693455 2 2
        2 2 2
        3.30654 2 2
        4.43954 2 2
        -0.428964 3.45054 2
        0.688283 3.31172 2
        2 3.30654 2
        3.31172 3.31172 2
        4.42896 3.45054 2
        -0.559487 4.55949 2
        0.549458 4.42896 2
        2 4.43954 2
        3.45054 4.42896 2
        4.55949 4.55949 2
        -0.54755 -0.54755 3.56225
        0.544111 -0.4155 3.45589
        2 -0.428964 3.45054
        3.45589 -0.4155 3.45589
        4.54755 -0.54755 3.56225
        -0.4155 0.544111 3.45589
        0.684064 0.684064 3.31594
        2 0.688283 3.31172
        3.31594 0.684064 3.31594
        4.4155 0.544111 3.45589
        -0.428964 2 3.45054
        0.688283 2 3.31172
        2 2 3.30654
        3.31172 2 3.31172
        4.42896 2 3.45054
        -0.4155 3.45589 3.45589
        0.684064 3.31594 3.31594
        2 3.31172 3.31172
        3.31594 3.31594 3.31594
        4.4155 3.45589 3.45589
        -0.54755 4.54755 3.56225
        0.544111 4.4155 3.45589
        2 4.42896 3.45054
        3.45589 4.4155 3.45589
        4.54755 4.54755 3.56225
        -0.64902 -0.64902 4.64902
        0.437751 -0.54755 4.54755
        2 -0.559487 4.55949
        3.56225 -0.54755 4.54755
        4.64902 -0.64902 4.64902
        -0.54755 0.437751 4.54755
        0.544111 0.544111 4.4155
        2 0.549458 4.42896
        3.45589 0.544111 4.4155
        4.54755 0.437751 4.54755
        -0.559487 2 4.55949
        0.549458 2 4.42896
        2 2 4.43954
        3.45054 2 4.42896
        4.55949 2 4.55949
        -0.54755 3.56225 4.54755
        0.544111 3.45589 4.4155
        2 3.45054 4.42896
        3.45589 3.45589 4.4155
        4.54755 3.56225 4.54755
        -0.64902 4.64902 4.64902
        0.437751 4.54755 4.54755
        2 4.55949 4.55949
        3.56225 4.54755 4.54755
        4.64902 4.64902 4.64902
      </DataArray>
    </Points>
    <Cells>
      <DataArray type="Int32" Name="connectivity" format="ascii"/>
      <DataArray type="Int32" Name="offsets" format="ascii"/>
      <DataArray type="UInt8" Name="types" format="ascii"/>
    </Cells>
  </Piece>
  </UnstructuredGrid>
</VTKFile>
