<VTKFile type="UnstructuredGrid" version="0.1">
  <UnstructuredGrid>
  <Piece NumberOfPoints="125" NumberOfCells="0">
    <PointData Scalars="Radius">
      <DataArray type="Float64" Name="Radius" format="ascii">
        0.5
        0.5
        0.5
        0.5
        0.5
        0.5
        0.5
        0.5
        0.5
        0.5
        0.5
        0.5
        0.5
        0.5
        0.5
        0.5
        0.5
        0.5
        0.5
        0.5
        0.5
        0.5
        0.5
        0.5
        0.5
        0.5
        0.5
        0.5
        0.5
        0.5
        0.5
        0.5
        0.5
        0.5
        0.5
        0.5
        0.5
        0.5
        0.5
        0.5
        0.5
        0.5
        0.5
        0.5
        0.5
        0.5
        0.5
        0.5
        0.5
        0.5
        0.5
        0.5
        0.5
        0.5
        0.5
        0.5
        0.5
        0.5
        0.5
        0.5
        0.5
        0.5
        0.5
        0.5
        0.5
        0.5
        0.5
        0.5
        0.5
        0.5
        0.5
        0.5
        0.5
        0.5
        0.5
        0.5
        0.5
        0.5
        0.5
        0.5
        0.5
        0.5
        0.5
        0.5
        0.5
        0.5
        0.5
        0.5
        0.5
        0.5
        0.5
        0.5
        0.5
        0.5
        0.5
        0.5
        0.5
        0.5
        0.5
        0.5
        0.5
        0.5
        0.5
        0.5
        0.5
        0.5
        0.5
        0.5
        0.5
        0.5
        0.5
        0.5
        0.5
        0.5
        0.5
        0.5
        0.5
        0.5
        0.5
        0.5
        0.5
        0.5
        0.5
        0.5
        0.5
      </DataArray>
    </PointData>
    <Points>
      <DataArray type="Float64" NumberOfComponents="3" format="ascii">
        -0.758296 -0.758296 -0.758296
        0.298039 -0.574725 -0.574725
        2 -0.603906 -0.603906
        3.70196 -0.574725 -0.574725
        4.7583 -0.758296 -0.758296
        -0.574725 0.298039 -0.574725
        0.471199 0.471199 -0.337213
        2 0.467438 -0.377696
        3.5288 0.471199 -0.337213
        4.57473 0.298039 -0.574725
        -0.603906 2 -0.603906
        0.467438 2 -0.377696
        2 2 -0.406777
        3.53256 2 -0.377696
        4.60391 2 -0.603906
        -0.574725 3.70196 -0.574725
        0.471199 3.5288 -0.337213
        2 3.53256 -0.377696
        3.5288 3.5288 -0.337213
        4.57473 3.70196 -0.574725
        -0.758296 4.7583 -0.758296
        0.298039 4.57473 -0.574725
        2 4.60391 -0.603906
        3.70196 4.57473 -0.574725
        4.7583 4.7583 -0.758296
        -0.574725 -0.574725 0.298039
        0.471199 -0.337213 0.471199
        2 -0.377696 0.467438
        3.5288 -0.337213 0.471199
        4.57473 -0.574725 0.298039
        -0.337213 0.471199 0.471199
        0.702186 0.702186 0.702186
        2 0.695888 0.695888
        3.29781 0.702186 0.702186
        4.33721 0.471199 0.471199
        -0.377696 2 0.467438
        0.695888 2 0.695888
        2 2 0.697723
        3.30411 2 0.695888
        4.3777 2 0.467438
        -0.337213 3.5288 0.471199
        0.702186 3.29781 0.702186
        2 3.30411 0.695888
        3.29781 3.29781 0.702186
        4.33721 3.5288 0.471199
        -0.574725 4.57473 0.298039
        0.471199 4.33721 0.471199
        2 4.3777 0.467438
        3.5288 4.33721 0.471199
        4.57473 4.57473 0.298039
        -0.603906 -0.603906 2
        0.467438 -0.377696 2
        2 -0.406777 2
        3.53256 -0.377696 2
        4.60391 -0.603906 2
        -0.377696 0.467438 2
        0.695888 0.695888 2
        2 0.697723 2
        3.30411 0.695888 2
        4.3777 0.467438 2
        -0.406777 2 2
        0.697723 2 2
        2 2 2
        3.30228 2 2
        4.40678 2 2
        -0.377696 3.53256 2
        0.695888 3.30411 2
        2 3.30228 2
        3.30411 3.30411 2
        4.3777 3.53256 2
        -0.603906 4.60391 2
        0.467438 4.3777 2
        2 4.40678 2
        3.53256 4.3777 2
        4.60391 4.60391 2
        -0.574725 -0.574725 3.70196
        0.471199 -0.337213 3.5288
        2 -0.377696 3.53256
        3.5288 -0.337213 3.5288
        4.57473 -0.574725 3.70196
        -0.337213 0.471199 3.5288
        0.702186 0.702186 3.29781
        2 0.695888 3.30411
        3.29781 0.702186 3.29781
        4.33721 0.471199 3.5288
        -0.377696 2 3.53256
        0.695888 2 3.30411
        2 2 3.30228
        3.30411 2 3.30411
        4.3777 2 3.53256
        -0.337213 3.5288 3.5288
        0.702186 3.29781 3.29781
        2 3.30411 3.30411
        3.29781 3.29781 3.29781
        4.33721 3.5288 3.5288
        -0.574725 4.57473 3.70196
        0.471199 4.33721 3.5288
        2 4.3777 3.53256
        3.5288 4.33721 3.5288
        4.57473 4.57473 3.70196
        -0.758296 -0.758296 4.7583
        0.298039 -0.574725 4.57473
        2 -0.603906 4.60391
        3.70196 -0.574725 4.57473
        4.7583 -0.758296 4.7583
        -0.574725 0.298039 4.57473
        0.471199 0.471199 4.33721
        2 0.467438 4.3777
        3.5288 0.471199 4.33721
        4.57473 0.298039 4.57473
        -0.603906 2 4.60391
        0.467438 2 4.3777
        2 2 4.40678
        3.53256 2 4.3777
        4.60391 2 4.60391
        -0.574725 3.70196 4.57473
        0.471199 3.5288 4.33721
        2 3.53256 4.3777
        3.5288 3.5288 4.33721
        4.57473 3.70196 4.57473
        -0.758296 4.7583 4.7583
        0.298039 4.57473 4.57473
        2 4.60391 4.60391
        3.70196 4.57473 4.57473
        4.7583 4.7583 4.7583
      </DataArray>
    </Points>
    <Cells>
      <DataArray type="Int32" Name="connectivity" format="ascii"/>
      <DataArray type="Int32" Name="offsets" format="ascii"/>
      <DataArray type="UInt8" Name="types" format="ascii"/>
    </Cells>
  </Piece>
  </UnstructuredGrid>
</VTKFile>
