<VTKFile type="UnstructuredGrid" version="0.1">
  <UnstructuredGrid>
  <Piece NumberOfPoints="125" NumberOfCells="0">
    <PointData Scalars="Radius">
      <DataArray type="Float64" Name="Radius" format="ascii">
        0.5
        0.5
        0.5
        0.5
        0.5
        0.5
        0.5
        0.5
        0.5
        0.5
        0.5
        0.5
        0.5
        0.5
        0.5
        0.5
        0.5
        0.5
        0.5
        0.5
        0.5
        0.5
        0.5
        0.5
        0.5
        0.5
        0.5
        0.5
        0.5
        0.5
        0.5
        0.5
        0.5
        0.5
        0.5
        0.5
        0.5
        0.5
        0.5
        0.5
        0.5
        0.5
        0.5
        0.5
        0.5
        0.5
        0.5
        0.5
        0.5
        0.5
        0.5
        0.5
        0.5
        0.5
        0.5
        0.5
        0.5
        0.5
        0.5
        0.5
        0.5
        0.5
        0.5
        0.5
        0.5
        0.5
        0.5
        0.5
        0.5
        0.5
        0.5
        0.5
        0.5
        0.5
        0.5
        0.5
        0.5
        0.5
        0.5
        0.5
        0.5
        0.5
        0.5
        0.5
        0.5
        0.5
        0.5
        0.5
        0.5
        0.5
        0.5
        0.5
        0.5
        0.5
        0.5
        0.5
        0.5
        0.5
        0.5
        0.5
        0.5
        0.5
        0.5
        0.5
        0.5
        0.5
        0.5
        0.5
        0.5
        0.5
        0.5
        0.5
        0.5
        0.5
        0.5
        0.5
        0.5
        0.5
        0.5
        0.5
        0.5
        0.5
        0.5
        0.5
        0.5
      </DataArray>
    </PointData>
    <Points>
      <DataArray type="Float64" NumberOfComponents="3" format="ascii">
        -1.06984 -1.06984 -1.06984
        0.169519 -0.686778 -0.686778
        2.00007 -0.664853 -0.664853
        3.80373 -0.676306 -0.676306
        5.11833 -1.11833 -1.11833
        -0.686778 0.169519 -0.686778
        0.54554 0.54554 -0.276798
        2.00002 0.578362 -0.266
        3.4541 0.545901 -0.276566
        4.67631 0.196269 -0.676306
        -0.664853 2.00007 -0.664853
        0.578362 2.00002 -0.266
        2 2 -0.102623
        3.42165 2 -0.266001
        4.66485 2 -0.664847
        -0.676306 3.80373 -0.676306
        0.545901 3.4541 -0.276566
        2 3.42165 -0.266001
        3.4541 3.4541 -0.276566
        4.67631 3.80373 -0.676306
        -1.11833 5.11833 -1.11833
        0.196269 4.67631 -0.676306
        2 4.66485 -0.664847
        3.80373 4.67631 -0.676306
        5.11833 5.11833 -1.11833
        -0.686778 -0.686778 0.169519
        0.54554 -0.276798 0.54554
        2.00002 -0.266 0.578362
        3.4541 -0.276566 0.545901
        4.67631 -0.676306 0.196269
        -0.276798 0.54554 0.54554
        0.936381 0.936381 0.936381
        2 0.956663 0.956663
        3.06364 0.93636 0.93636
        4.27657 0.545901 0.545901
        -0.266 2.00002 0.578362
        0.956663 2 0.956663
        2 2 0.992203
        3.04334 2 0.956662
        4.266 2 0.578353
        -0.276566 3.4541 0.545901
        0.93636 3.06364 0.93636
        2 3.04334 0.956662
        3.06364 3.06364 0.93636
        4.27657 3.4541 0.545901
        -0.676306 4.67631 0.196269
        0.545901 4.27657 0.545901
        2 4.266 0.578353
        3.4541 4.27657 0.545901
        4.67631 4.67631 0.196269
        -0.664853 -0.664853 2.00007
        0.578362 -0.266 2.00002
        2 -0.102623 2
        3.42165 -0.266001 2
        4.66485 -0.664847 2
        -0.266 0.578362 2.00002
        0.956663 0.956663 2
        2 0.992203 2
        3.04334 0.956662 2
        4.266 0.578353 2
        -0.102623 2 2
        0.992203 2 2
        2 2 2
        3.0078 2 2
        4.10262 2 2
        -0.266001 3.42165 2
        0.956662 3.04334 2
        2 3.0078 2
        3.04334 3.04334 2
        4.266 3.42165 2
        -0.664847 4.66485 2
        0.578353 4.266 2
        2 4.10262 2
        3.42165 4.266 2
        4.66485 4.66485 2
        -0.676306 -0.676306 3.80373
        0.545901 -0.276566 3.4541
        2 -0.266001 3.42165
        3.4541 -0.276566 3.4541
        4.67631 -0.676306 3.80373
        -0.276566 0.545901 3.4541
        0.93636 0.93636 3.06364
        2 0.956662 3.04334
        3.06364 0.93636 3.06364
        4.27657 0.545901 3.4541
        -0.266001 2 3.42165
        0.956662 2 3.04334
        2 2 3.0078
        3.04334 2 3.04334
        4.266 2 3.42165
        -0.276566 3.4541 3.4541
        0.93636 3.06364 3.06364
        2 3.04334 3.04334
        3.06364 3.06364 3.06364
        4.27657 3.4541 3.4541
        -0.676306 4.67631 3.80373
        0.545901 4.27657 3.4541
        2 4.266 3.42165
        3.4541 4.27657 3.4541
        4.67631 4.67631 3.80373
        -1.11833 -1.11833 5.11833
        0.196269 -0.676306 4.67631
        2 -0.664847 4.66485
        3.80373 -0.676306 4.67631
        5.11833 -1.11833 5.11833
        -0.676306 0.196269 4.67631
        0.545901 0.545901 4.27657
        2 0.578353 4.266
        3.4541 0.545901 4.27657
        4.67631 0.196269 4.67631
        -0.664847 2 4.66485
        0.578353 2 4.266
        2 2 4.10262
        3.42165 2 4.266
        4.66485 2 4.66485
        -0.676306 3.80373 4.67631
        0.545901 3.4541 4.27657
        2 3.42165 4.266
        3.4541 3.4541 4.27657
        4.67631 3.80373 4.67631
        -1.11833 5.11833 5.11833
        0.196269 4.67631 4.67631
        2 4.66485 4.66485
        3.80373 4.67631 4.67631
        5.11833 5.11833 5.11833
      </DataArray>
    </Points>
    <Cells>
      <DataArray type="Int32" Name="connectivity" format="ascii"/>
      <DataArray type="Int32" Name="offsets" format="ascii"/>
      <DataArray type="UInt8" Name="types" format="ascii"/>
    </Cells>
  </Piece>
  </UnstructuredGrid>
</VTKFile>
