<VTKFile type="UnstructuredGrid" version="0.1">
  <UnstructuredGrid>
  <Piece NumberOfPoints="125" NumberOfCells="0">
    <PointData Scalars="Radius">
      <DataArray type="Float64" Name="Radius" format="ascii">
        0.5
        0.5
        0.5
        0.5
        0.5
        0.5
        0.5
        0.5
        0.5
        0.5
        0.5
        0.5
        0.5
        0.5
        0.5
        0.5
        0.5
        0.5
        0.5
        0.5
        0.5
        0.5
        0.5
        0.5
        0.5
        0.5
        0.5
        0.5
        0.5
        0.5
        0.5
        0.5
        0.5
        0.5
        0.5
        0.5
        0.5
        0.5
        0.5
        0.5
        0.5
        0.5
        0.5
        0.5
        0.5
        0.5
        0.5
        0.5
        0.5
        0.5
        0.5
        0.5
        0.5
        0.5
        0.5
        0.5
        0.5
        0.5
        0.5
        0.5
        0.5
        0.5
        0.5
        0.5
        0.5
        0.5
        0.5
        0.5
        0.5
        0.5
        0.5
        0.5
        0.5
        0.5
        0.5
        0.5
        0.5
        0.5
        0.5
        0.5
        0.5
        0.5
        0.5
        0.5
        0.5
        0.5
        0.5
        0.5
        0.5
        0.5
        0.5
        0.5
        0.5
        0.5
        0.5
        0.5
        0.5
        0.5
        0.5
        0.5
        0.5
        0.5
        0.5
        0.5
        0.5
        0.5
        0.5
        0.5
        0.5
        0.5
        0.5
        0.5
        0.5
        0.5
        0.5
        0.5
        0.5
        0.5
        0.5
        0.5
        0.5
        0.5
        0.5
        0.5
        0.5
      </DataArray>
    </PointData>
    <Points>
      <DataArray type="Float64" NumberOfComponents="3" format="ascii">
        -0.507367 -0.507367 -0.507367
        0.662736 -0.453622 -0.453622
        2 -0.454299 -0.454299
        3.33726 -0.453622 -0.453622
        4.50737 -0.507367 -0.507367
        -0.453622 0.662736 -0.453622
        0.703569 0.703569 -0.389435
        2 0.705494 -0.390467
        3.29643 0.703569 -0.389435
        4.45362 0.662736 -0.453622
        -0.454299 2 -0.454299
        0.705494 2 -0.390467
        2 2 -0.391529
        3.29451 2 -0.390467
        4.4543 2 -0.454299
        -0.453622 3.33726 -0.453622
        0.703569 3.29643 -0.389435
        2 3.29451 -0.390467
        3.29643 3.29643 -0.389435
        4.45362 3.33726 -0.453622
        -0.507367 4.50737 -0.507367
        0.662736 4.45362 -0.453622
        2 4.4543 -0.454299
        3.33726 4.45362 -0.453622
        4.50737 4.50737 -0.507367
        -0.453622 -0.453622 0.662736
        0.703569 -0.389435 0.703569
        2 -0.390467 0.705494
        3.29643 -0.389435 0.703569
        4.45362 -0.453622 0.662736
        -0.389435 0.703569 0.703569
        0.758197 0.758197 0.758197
        2 0.760187 0.760187
        3.2418 0.758197 0.758197
        4.38944 0.703569 0.703569
        -0.390467 2 0.705494
        0.760187 2 0.760187
        2 2 0.76212
        3.23981 2 0.760187
        4.39047 2 0.705494
        -0.389435 3.29643 0.703569
        0.758197 3.2418 0.758197
        2 3.23981 0.760187
        3.2418 3.2418 0.758197
        4.38944 3.29643 0.703569
        -0.453622 4.45362 0.662736
        0.703569 4.38944 0.703569
        2 4.39047 0.705494
        3.29643 4.38944 0.703569
        4.45362 4.45362 0.662736
        -0.454299 -0.454299 2
        0.705494 -0.390467 2
        2 -0.391529 2
        3.29451 -0.390467 2
        4.4543 -0.454299 2
        -0.390467 0.705494 2
        0.760187 0.760187 2
        2 0.76212 2
        3.23981 0.760187 2
        4.39047 0.705494 2
        -0.391529 2 2
        0.76212 2 2
        2 2 2
        3.23788 2 2
        4.39153 2 2
        -0.390467 3.29451 2
        0.760187 3.23981 2
        2 3.23788 2
        3.23981 3.23981 2
        4.39047 3.29451 2
        -0.454299 4.4543 2
        0.705494 4.39047 2
        2 4.39153 2
        3.29451 4.39047 2
        4.4543 4.4543 2
        -0.453622 -0.453622 3.33726
        0.703569 -0.389435 3.29643
        2 -0.390467 3.29451
        3.29643 -0.389435 3.29643
        4.45362 -0.453622 3.33726
        -0.389435 0.703569 3.29643
        0.758197 0.758197 3.2418
        2 0.760187 3.23981
        3.2418 0.758197 3.2418
        4.38944 0.703569 3.29643
        -0.390467 2 3.29451
        0.760187 2 3.23981
        2 2 3.23788
        3.23981 2 3.23981
        4.39047 2 3.29451
        -0.389435 3.29643 3.29643
        0.758197 3.2418 3.2418
        2 3.23981 3.23981
        3.2418 3.2418 3.2418
        4.38944 3.29643 3.29643
        -0.453622 4.45362 3.33726
        0.703569 4.38944 3.29643
        2 4.39047 3.29451
        3.29643 4.38944 3.29643
        4.45362 4.45362 3.33726
        -0.507367 -0.507367 4.50737
        0.662736 -0.453622 4.45362
        2 -0.454299 4.4543
        3.33726 -0.453622 4.45362
        4.50737 -0.507367 4.50737
        -0.453622 0.662736 4.45362
        0.703569 0.703569 4.38944
        2 0.705494 4.39047
        3.29643 0.703569 4.38944
        4.45362 0.662736 4.45362
        -0.454299 2 4.4543
        0.705494 2 4.39047
        2 2 4.39153
        3.29451 2 4.39047
        4.4543 2 4.4543
        -0.453622 3.33726 4.45362
        0.703569 3.29643 4.38944
        2 3.29451 4.39047
        3.29643 3.29643 4.38944
        4.45362 3.33726 4.45362
        -0.507367 4.50737 4.50737
        0.662736 4.45362 4.45362
        2 4.4543 4.4543
        3.33726 4.45362 4.45362
        4.50737 4.50737 4.50737
      </DataArray>
    </Points>
    <Cells>
      <DataArray type="Int32" Name="connectivity" format="ascii"/>
      <DataArray type="Int32" Name="offsets" format="ascii"/>
      <DataArray type="UInt8" Name="types" format="ascii"/>
    </Cells>
  </Piece>
  </UnstructuredGrid>
</VTKFile>
