<VTKFile type="UnstructuredGrid" version="0.1">
  <UnstructuredGrid>
  <Piece NumberOfPoints="125" NumberOfCells="0">
    <PointData Scalars="Radius">
      <DataArray type="Float64" Name="Radius" format="ascii">
        0.5
        0.5
        0.5
        0.5
        0.5
        0.5
        0.5
        0.5
        0.5
        0.5
        0.5
        0.5
        0.5
        0.5
        0.5
        0.5
        0.5
        0.5
        0.5
        0.5
        0.5
        0.5
        0.5
        0.5
        0.5
        0.5
        0.5
        0.5
        0.5
        0.5
        0.5
        0.5
        0.5
        0.5
        0.5
        0.5
        0.5
        0.5
        0.5
        0.5
        0.5
        0.5
        0.5
        0.5
        0.5
        0.5
        0.5
        0.5
        0.5
        0.5
        0.5
        0.5
        0.5
        0.5
        0.5
        0.5
        0.5
        0.5
        0.5
        0.5
        0.5
        0.5
        0.5
        0.5
        0.5
        0.5
        0.5
        0.5
        0.5
        0.5
        0.5
        0.5
        0.5
        0.5
        0.5
        0.5
        0.5
        0.5
        0.5
        0.5
        0.5
        0.5
        0.5
        0.5
        0.5
        0.5
        0.5
        0.5
        0.5
        0.5
        0.5
        0.5
        0.5
        0.5
        0.5
        0.5
        0.5
        0.5
        0.5
        0.5
        0.5
        0.5
        0.5
        0.5
        0.5
        0.5
        0.5
        0.5
        0.5
        0.5
        0.5
        0.5
        0.5
        0.5
        0.5
        0.5
        0.5
        0.5
        0.5
        0.5
        0.5
        0.5
        0.5
        0.5
        0.5
      </DataArray>
    </PointData>
    <Points>
      <DataArray type="Float64" NumberOfComponents="3" format="ascii">
        -0.0101642 -0.0101642 -0.0101642
        0.999839 -0.00942115 -0.00942115
        2 -0.00939224 -0.00939224
        3.00016 -0.00942115 -0.00942115
        4.01016 -0.0101642 -0.0101642
        -0.00942115 0.999839 -0.00942115
        0.999917 0.999917 -0.00852604
        2 0.999918 -0.00848805
        3.00008 0.999917 -0.00852604
        4.00942 0.999839 -0.00942115
        -0.00939224 2 -0.00939224
        0.999918 2 -0.00848805
        2 2 -0.00845011
        3.00008 2 -0.00848805
        4.00939 2 -0.00939224
        -0.00942115 3.00016 -0.00942115
        0.999917 3.00008 -0.00852604
        2 3.00008 -0.00848805
        3.00008 3.00008 -0.00852604
        4.00942 3.00016 -0.00942115
        -0.0101642 4.01016 -0.0101642
        0.999839 4.00942 -0.00942115
        2 4.00939 -0.00939224
        3.00016 4.00942 -0.00942115
        4.01016 4.01016 -0.0101642
        -0.00942115 -0.00942115 0.999839
        0.999917 -0.00852604 0.999917
        2 -0.00848805 0.999918
        3.00008 -0.00852604 0.999917
        4.00942 -0.00942115 0.999839
        -0.00852604 0.999917 0.999917
        1.00002 1.00002 1.00002
        2 1.00002 1.00002
        2.99998 1.00002 1.00002
        4.00853 0.999917 0.999917
        -0.00848805 2 0.999918
        1.00002 2 1.00002
        2 2 1.00002
        2.99998 2 1.00002
        4.00849 2 0.999918
        -0.00852604 3.00008 0.999917
        1.00002 2.99998 1.00002
        2 2.99998 1.00002
        2.99998 2.99998 1.00002
        4.00853 3.00008 0.999917
        -0.00942115 4.00942 0.999839
        0.999917 4.00853 0.999917
        2 4.00849 0.999918
        3.00008 4.00853 0.999917
        4.00942 4.00942 0.999839
        -0.00939224 -0.00939224 2
        0.999918 -0.00848805 2
        2 -0.00845011 2
        3.00008 -0.00848805 2
        4.00939 -0.00939224 2
        -0.00848805 0.999918 2
        1.00002 1.00002 2
        2 1.00002 2
        2.99998 1.00002 2
        4.00849 0.999918 2
        -0.00845011 2 2
        1.00002 2 2
        2 2 2
        2.99998 2 2
        4.00845 2 2
        -0.00848805 3.00008 2
        1.00002 2.99998 2
        2 2.99998 2
        2.99998 2.99998 2
        4.00849 3.00008 2
        -0.00939224 4.00939 2
        0.999918 4.00849 2
        2 4.00845 2
        3.00008 4.00849 2
        4.00939 4.00939 2
        -0.00942115 -0.00942115 3.00016
        0.999917 -0.00852604 3.00008
        2 -0.00848805 3.00008
        3.00008 -0.00852604 3.00008
        4.00942 -0.00942115 3.00016
        -0.00852604 0.999917 3.00008
        1.00002 1.00002 2.99998
        2 1.00002 2.99998
        2.99998 1.00002 2.99998
        4.00853 0.999917 3.00008
        -0.00848805 2 3.00008
        1.00002 2 2.99998
        2 2 2.99998
        2.99998 2 2.99998
        4.00849 2 3.00008
        -0.00852604 3.00008 3.00008
        1.00002 2.99998 2.99998
        2 2.99998 2.99998
        2.99998 2.99998 2.99998
        4.00853 3.00008 3.00008
        -0.00942115 4.00942 3.00016
        0.999917 4.00853 3.00008
        2 4.00849 3.00008
        3.00008 4.00853 3.00008
        4.00942 4.00942 3.00016
        -0.0101642 -0.0101642 4.01016
        0.999839 -0.00942115 4.00942
        2 -0.00939224 4.00939
        3.00016 -0.00942115 4.00942
        4.01016 -0.0101642 4.01016
        -0.00942115 0.999839 4.00942
        0.999917 0.999917 4.00853
        2 0.999918 4.00849
        3.00008 0.999917 4.00853
        4.00942 0.999839 4.00942
        -0.00939224 2 4.00939
        0.999918 2 4.00849
        2 2 4.00845
        3.00008 2 4.00849
        4.00939 2 4.00939
        -0.00942115 3.00016 4.00942
        0.999917 3.00008 4.00853
        2 3.00008 4.00849
        3.00008 3.00008 4.00853
        4.00942 3.00016 4.00942
        -0.0101642 4.01016 4.01016
        0.999839 4.00942 4.00942
        2 4.00939 4.00939
        3.00016 4.00942 4.00942
        4.01016 4.01016 4.01016
      </DataArray>
    </Points>
    <Cells>
      <DataArray type="Int32" Name="connectivity" format="ascii"/>
      <DataArray type="Int32" Name="offsets" format="ascii"/>
      <DataArray type="UInt8" Name="types" format="ascii"/>
    </Cells>
  </Piece>
  </UnstructuredGrid>
</VTKFile>
