<VTKFile type="UnstructuredGrid" version="0.1">
  <UnstructuredGrid>
  <Piece NumberOfPoints="125" NumberOfCells="0">
    <PointData Scalars="Radius">
      <DataArray type="Float64" Name="Radius" format="ascii">
        0.5
        0.5
        0.5
        0.5
        0.5
        0.5
        0.5
        0.5
        0.5
        0.5
        0.5
        0.5
        0.5
        0.5
        0.5
        0.5
        0.5
        0.5
        0.5
        0.5
        0.5
        0.5
        0.5
        0.5
        0.5
        0.5
        0.5
        0.5
        0.5
        0.5
        0.5
        0.5
        0.5
        0.5
        0.5
        0.5
        0.5
        0.5
        0.5
        0.5
        0.5
        0.5
        0.5
        0.5
        0.5
        0.5
        0.5
        0.5
        0.5
        0.5
        0.5
        0.5
        0.5
        0.5
        0.5
        0.5
        0.5
        0.5
        0.5
        0.5
        0.5
        0.5
        0.5
        0.5
        0.5
        0.5
        0.5
        0.5
        0.5
        0.5
        0.5
        0.5
        0.5
        0.5
        0.5
        0.5
        0.5
        0.5
        0.5
        0.5
        0.5
        0.5
        0.5
        0.5
        0.5
        0.5
        0.5
        0.5
        0.5
        0.5
        0.5
        0.5
        0.5
        0.5
        0.5
        0.5
        0.5
        0.5
        0.5
        0.5
        0.5
        0.5
        0.5
        0.5
        0.5
        0.5
        0.5
        0.5
        0.5
        0.5
        0.5
        0.5
        0.5
        0.5
        0.5
        0.5
        0.5
        0.5
        0.5
        0.5
        0.5
        0.5
        0.5
        0.5
        0.5
      </DataArray>
    </PointData>
    <Points>
      <DataArray type="Float64" NumberOfComponents="3" format="ascii">
        -1.04477 -1.04477 -1.04477
        0.15039 -0.668733 -0.668733
        2 -0.691 -0.691
        3.84282 -0.666265 -0.666265
        5.05686 -1.05686 -1.05686
        -0.668733 0.15039 -0.668733
        0.536337 0.536337 -0.305271
        2 0.522221 -0.296203
        3.46351 0.536487 -0.305197
        4.66627 0.157179 -0.666265
        -0.691 2 -0.691
        0.522221 2 -0.296203
        2 2 -0.217598
        3.47778 2 -0.296203
        4.691 2 -0.690999
        -0.666265 3.84282 -0.666265
        0.536487 3.46351 -0.305197
        2 3.47778 -0.296203
        3.46351 3.46351 -0.305197
        4.66627 3.84282 -0.666265
        -1.05686 5.05686 -1.05686
        0.157179 4.66627 -0.666265
        2 4.691 -0.690999
        3.84282 4.66627 -0.666265
        5.05686 5.05686 -1.05686
        -0.668733 -0.668733 0.15039
        0.536337 -0.305271 0.536337
        2 -0.296203 0.522221
        3.46351 -0.305197 0.536487
        4.66627 -0.666265 0.157179
        -0.305271 0.536337 0.536337
        0.936831 0.936831 0.936831
        2 0.930309 0.930309
        3.06317 0.936829 0.936829
        4.3052 0.536487 0.536487
        -0.296203 2 0.522221
        0.930309 2 0.930309
        2 2 0.941855
        3.06969 2 0.930309
        4.2962 2 0.522221
        -0.305197 3.46351 0.536487
        0.936829 3.06317 0.936829
        2 3.06969 0.930309
        3.06317 3.06317 0.936829
        4.3052 3.46351 0.536487
        -0.666265 4.66627 0.157179
        0.536487 4.3052 0.536487
        2 4.2962 0.522221
        3.46351 4.3052 0.536487
        4.66627 4.66627 0.157179
        -0.691 -0.691 2
        0.522221 -0.296203 2
        2 -0.217598 2
        3.47778 -0.296203 2
        4.691 -0.690999 2
        -0.296203 0.522221 2
        0.930309 0.930309 2
        2 0.941855 2
        3.06969 0.930309 2
        4.2962 0.522221 2
        -0.217598 2 2
        0.941855 2 2
        2 2 2
        3.05814 2 2
        4.2176 2 2
        -0.296203 3.47778 2
        0.930309 3.06969 2
        2 3.05814 2
        3.06969 3.06969 2
        4.2962 3.47778 2
        -0.690999 4.691 2
        0.522221 4.2962 2
        2 4.2176 2
        3.47778 4.2962 2
        4.691 4.691 2
        -0.666265 -0.666265 3.84282
        0.536487 -0.305197 3.46351
        2 -0.296203 3.47778
        3.46351 -0.305197 3.46351
        4.66627 -0.666265 3.84282
        -0.305197 0.536487 3.46351
        0.936829 0.936829 3.06317
        2 0.930309 3.06969
        3.06317 0.936829 3.06317
        4.3052 0.536487 3.46351
        -0.296203 2 3.47778
        0.930309 2 3.06969
        2 2 3.05814
        3.06969 2 3.06969
        4.2962 2 3.47778
        -0.305197 3.46351 3.46351
        0.936829 3.06317 3.06317
        2 3.06969 3.06969
        3.06317 3.06317 3.06317
        4.3052 3.46351 3.46351
        -0.666265 4.66627 3.84282
        0.536487 4.3052 3.46351
        2 4.2962 3.47778
        3.46351 4.3052 3.46351
        4.66627 4.66627 3.84282
        -1.05686 -1.05686 5.05686
        0.157179 -0.666265 4.66627
        2 -0.690999 4.691
        3.84282 -0.666265 4.66627
        5.05686 -1.05686 5.05686
        -0.666265 0.157179 4.66627
        0.536487 0.536487 4.3052
        2 0.522221 4.2962
        3.46351 0.536487 4.3052
        4.66627 0.157179 4.66627
        -0.690999 2 4.691
        0.522221 2 4.2962
        2 2 4.2176
        3.47778 2 4.2962
        4.691 2 4.691
        -0.666265 3.84282 4.66627
        0.536487 3.46351 4.3052
        2 3.47778 4.2962
        3.46351 3.46351 4.3052
        4.66627 3.84282 4.66627
        -1.05686 5.05686 5.05686
        0.157179 4.66627 4.66627
        2 4.691 4.691
        3.84282 4.66627 4.66627
        5.05686 5.05686 5.05686
      </DataArray>
    </Points>
    <Cells>
      <DataArray type="Int32" Name="connectivity" format="ascii"/>
      <DataArray type="Int32" Name="offsets" format="ascii"/>
      <DataArray type="UInt8" Name="types" format="ascii"/>
    </Cells>
  </Piece>
  </UnstructuredGrid>
</VTKFile>
