<VTKFile type="UnstructuredGrid" version="0.1">
  <UnstructuredGrid>
  <Piece NumberOfPoints="125" NumberOfCells="0">
    <PointData Scalars="Radius">
      <DataArray type="Float64" Name="Radius" format="ascii">
        0.5
        0.5
        0.5
        0.5
        0.5
        0.5
        0.5
        0.5
        0.5
        0.5
        0.5
        0.5
        0.5
        0.5
        0.5
        0.5
        0.5
        0.5
        0.5
        0.5
        0.5
        0.5
        0.5
        0.5
        0.5
        0.5
        0.5
        0.5
        0.5
        0.5
        0.5
        0.5
        0.5
        0.5
        0.5
        0.5
        0.5
        0.5
        0.5
        0.5
        0.5
        0.5
        0.5
        0.5
        0.5
        0.5
        0.5
        0.5
        0.5
        0.5
        0.5
        0.5
        0.5
        0.5
        0.5
        0.5
        0.5
        0.5
        0.5
        0.5
        0.5
        0.5
        0.5
        0.5
        0.5
        0.5
        0.5
        0.5
        0.5
        0.5
        0.5
        0.5
        0.5
        0.5
        0.5
        0.5
        0.5
        0.5
        0.5
        0.5
        0.5
        0.5
        0.5
        0.5
        0.5
        0.5
        0.5
        0.5
        0.5
        0.5
        0.5
        0.5
        0.5
        0.5
        0.5
        0.5
        0.5
        0.5
        0.5
        0.5
        0.5
        0.5
        0.5
        0.5
        0.5
        0.5
        0.5
        0.5
        0.5
        0.5
        0.5
        0.5
        0.5
        0.5
        0.5
        0.5
        0.5
        0.5
        0.5
        0.5
        0.5
        0.5
        0.5
        0.5
        0.5
      </DataArray>
    </PointData>
    <Points>
      <DataArray type="Float64" NumberOfComponents="3" format="ascii">
        -1.03832 -1.03832 -1.03832
        0.145107 -0.663223 -0.663223
        2 -0.693039 -0.693039
        3.85021 -0.661553 -0.661553
        5.04661 -1.04661 -1.04661
        -0.663223 0.145107 -0.663223
        0.533453 0.533453 -0.30712
        2 0.5122 -0.298255
        3.46644 0.53356 -0.307069
        4.66155 0.149795 -0.661553
        -0.693039 2 -0.693039
        0.5122 2 -0.298255
        2 2 -0.233586
        3.4878 2 -0.298255
        4.69304 2 -0.693039
        -0.661553 3.85021 -0.661553
        0.53356 3.46644 -0.307069
        2 3.4878 -0.298255
        3.46644 3.46644 -0.307069
        4.66155 3.85021 -0.661553
        -1.04661 5.04661 -1.04661
        0.149795 4.66155 -0.661553
        2 4.69304 -0.693039
        3.85021 4.66155 -0.661553
        5.04661 5.04661 -1.04661
        -0.663223 -0.663223 0.145107
        0.533453 -0.30712 0.533453
        2 -0.298255 0.5122
        3.46644 -0.307069 0.53356
        4.66155 -0.661553 0.149795
        -0.30712 0.533453 0.533453
        0.931505 0.931505 0.931505
        2 0.920894 0.920894
        3.0685 0.931504 0.931504
        4.30707 0.53356 0.53356
        -0.298255 2 0.5122
        0.920894 2 0.920894
        2 2 0.928022
        3.07911 2 0.920894
        4.29826 2 0.512199
        -0.307069 3.46644 0.53356
        0.931504 3.0685 0.931504
        2 3.07911 0.920894
        3.0685 3.0685 0.931504
        4.30707 3.46644 0.53356
        -0.661553 4.66155 0.149795
        0.53356 4.30707 0.53356
        2 4.29826 0.512199
        3.46644 4.30707 0.53356
        4.66155 4.66155 0.149795
        -0.693039 -0.693039 2
        0.5122 -0.298255 2
        2 -0.233586 2
        3.4878 -0.298255 2
        4.69304 -0.693039 2
        -0.298255 0.5122 2
        0.920894 0.920894 2
        2 0.928022 2
        3.07911 0.920894 2
        4.29826 0.512199 2
        -0.233586 2 2
        0.928022 2 2
        2 2 2
        3.07198 2 2
        4.23359 2 2
        -0.298255 3.4878 2
        0.920894 3.07911 2
        2 3.07198 2
        3.07911 3.07911 2
        4.29826 3.4878 2
        -0.693039 4.69304 2
        0.512199 4.29826 2
        2 4.23359 2
        3.4878 4.29826 2
        4.69304 4.69304 2
        -0.661553 -0.661553 3.85021
        0.53356 -0.307069 3.46644
        2 -0.298255 3.4878
        3.46644 -0.307069 3.46644
        4.66155 -0.661553 3.85021
        -0.307069 0.53356 3.46644
        0.931504 0.931504 3.0685
        2 0.920894 3.07911
        3.0685 0.931504 3.0685
        4.30707 0.53356 3.46644
        -0.298255 2 3.4878
        0.920894 2 3.07911
        2 2 3.07198
        3.07911 2 3.07911
        4.29826 2 3.4878
        -0.307069 3.46644 3.46644
        0.931504 3.0685 3.0685
        2 3.07911 3.07911
        3.0685 3.0685 3.0685
        4.30707 3.46644 3.46644
        -0.661553 4.66155 3.85021
        0.53356 4.30707 3.46644
        2 4.29826 3.4878
        3.46644 4.30707 3.46644
        4.66155 4.66155 3.85021
        -1.04661 -1.04661 5.04661
        0.149795 -0.661553 4.66155
        2 -0.693039 4.69304
        3.85021 -0.661553 4.66155
        5.04661 -1.04661 5.04661
        -0.661553 0.149795 4.66155
        0.53356 0.53356 4.30707
        2 0.512199 4.29826
        3.46644 0.53356 4.30707
        4.66155 0.149795 4.66155
        -0.693039 2 4.69304
        0.512199 2 4.29826
        2 2 4.23359
        3.4878 2 4.29826
        4.69304 2 4.69304
        -0.661553 3.85021 4.66155
        0.53356 3.46644 4.30707
        2 3.4878 4.29826
        3.46644 3.46644 4.30707
        4.66155 3.85021 4.66155
        -1.04661 5.04661 5.04661
        0.149795 4.66155 4.66155
        2 4.69304 4.69304
        3.85021 4.66155 4.66155
        5.04661 5.04661 5.04661
      </DataArray>
    </Points>
    <Cells>
      <DataArray type="Int32" Name="connectivity" format="ascii"/>
      <DataArray type="Int32" Name="offsets" format="ascii"/>
      <DataArray type="UInt8" Name="types" format="ascii"/>
    </Cells>
  </Piece>
  </UnstructuredGrid>
</VTKFile>
