<VTKFile type="UnstructuredGrid" version="0.1">
  <UnstructuredGrid>
  <Piece NumberOfPoints="125" NumberOfCells="0">
    <PointData Scalars="Radius">
      <DataArray type="Float64" Name="Radius" format="ascii">
        0.5
        0.5
        0.5
        0.5
        0.5
        0.5
        0.5
        0.5
        0.5
        0.5
        0.5
        0.5
        0.5
        0.5
        0.5
        0.5
        0.5
        0.5
        0.5
        0.5
        0.5
        0.5
        0.5
        0.5
        0.5
        0.5
        0.5
        0.5
        0.5
        0.5
        0.5
        0.5
        0.5
        0.5
        0.5
        0.5
        0.5
        0.5
        0.5
        0.5
        0.5
        0.5
        0.5
        0.5
        0.5
        0.5
        0.5
        0.5
        0.5
        0.5
        0.5
        0.5
        0.5
        0.5
        0.5
        0.5
        0.5
        0.5
        0.5
        0.5
        0.5
        0.5
        0.5
        0.5
        0.5
        0.5
        0.5
        0.5
        0.5
        0.5
        0.5
        0.5
        0.5
        0.5
        0.5
        0.5
        0.5
        0.5
        0.5
        0.5
        0.5
        0.5
        0.5
        0.5
        0.5
        0.5
        0.5
        0.5
        0.5
        0.5
        0.5
        0.5
        0.5
        0.5
        0.5
        0.5
        0.5
        0.5
        0.5
        0.5
        0.5
        0.5
        0.5
        0.5
        0.5
        0.5
        0.5
        0.5
        0.5
        0.5
        0.5
        0.5
        0.5
        0.5
        0.5
        0.5
        0.5
        0.5
        0.5
        0.5
        0.5
        0.5
        0.5
        0.5
        0.5
      </DataArray>
    </PointData>
    <Points>
      <DataArray type="Float64" NumberOfComponents="3" format="ascii">
        -0.364708 -0.364708 -0.364708
        0.783942 -0.330986 -0.330986
        2 -0.329545 -0.329545
        3.21606 -0.330986 -0.330986
        4.36471 -0.364708 -0.364708
        -0.330986 0.783942 -0.330986
        0.802671 0.802671 -0.291164
        2 0.803542 -0.289748
        3.19733 0.802671 -0.291164
        4.33099 0.783942 -0.330986
        -0.329545 2 -0.329545
        0.803542 2 -0.289748
        2 2 -0.288429
        3.19646 2 -0.289748
        4.32955 2 -0.329545
        -0.330986 3.21606 -0.330986
        0.802671 3.19733 -0.291164
        2 3.19646 -0.289748
        3.19733 3.19733 -0.291164
        4.33099 3.21606 -0.330986
        -0.364708 4.36471 -0.364708
        0.783942 4.33099 -0.330986
        2 4.32955 -0.329545
        3.21606 4.33099 -0.330986
        4.36471 4.36471 -0.364708
        -0.330986 -0.330986 0.783942
        0.802671 -0.291164 0.802671
        2 -0.289748 0.803542
        3.19733 -0.291164 0.802671
        4.33099 -0.330986 0.783942
        -0.291164 0.802671 0.802671
        0.8275 0.8275 0.8275
        2 0.828564 0.828564
        3.1725 0.8275 0.8275
        4.29116 0.802671 0.802671
        -0.289748 2 0.803542
        0.828564 2 0.828564
        2 2 0.829611
        3.17144 2 0.828564
        4.28975 2 0.803542
        -0.291164 3.19733 0.802671
        0.8275 3.1725 0.8275
        2 3.17144 0.828564
        3.1725 3.1725 0.8275
        4.29116 3.19733 0.802671
        -0.330986 4.33099 0.783942
        0.802671 4.29116 0.802671
        2 4.28975 0.803542
        3.19733 4.29116 0.802671
        4.33099 4.33099 0.783942
        -0.329545 -0.329545 2
        0.803542 -0.289748 2
        2 -0.288429 2
        3.19646 -0.289748 2
        4.32955 -0.329545 2
        -0.289748 0.803542 2
        0.828564 0.828564 2
        2 0.829611 2
        3.17144 0.828564 2
        4.28975 0.803542 2
        -0.288429 2 2
        0.829611 2 2
        2 2 2
        3.17039 2 2
        4.28843 2 2
        -0.289748 3.19646 2
        0.828564 3.17144 2
        2 3.17039 2
        3.17144 3.17144 2
        4.28975 3.19646 2
        -0.329545 4.32955 2
        0.803542 4.28975 2
        2 4.28843 2
        3.19646 4.28975 2
        4.32955 4.32955 2
        -0.330986 -0.330986 3.21606
        0.802671 -0.291164 3.19733
        2 -0.289748 3.19646
        3.19733 -0.291164 3.19733
        4.33099 -0.330986 3.21606
        -0.291164 0.802671 3.19733
        0.8275 0.8275 3.1725
        2 0.828564 3.17144
        3.1725 0.8275 3.1725
        4.29116 0.802671 3.19733
        -0.289748 2 3.19646
        0.828564 2 3.17144
        2 2 3.17039
        3.17144 2 3.17144
        4.28975 2 3.19646
        -0.291164 3.19733 3.19733
        0.8275 3.1725 3.1725
        2 3.17144 3.17144
        3.1725 3.1725 3.1725
        4.29116 3.19733 3.19733
        -0.330986 4.33099 3.21606
        0.802671 4.29116 3.19733
        2 4.28975 3.19646
        3.19733 4.29116 3.19733
        4.33099 4.33099 3.21606
        -0.364708 -0.364708 4.36471
        0.783942 -0.330986 4.33099
        2 -0.329545 4.32955
        3.21606 -0.330986 4.33099
        4.36471 -0.364708 4.36471
        -0.330986 0.783942 4.33099
        0.802671 0.802671 4.29116
        2 0.803542 4.28975
        3.19733 0.802671 4.29116
        4.33099 0.783942 4.33099
        -0.329545 2 4.32955
        0.803542 2 4.28975
        2 2 4.28843
        3.19646 2 4.28975
        4.32955 2 4.32955
        -0.330986 3.21606 4.33099
        0.802671 3.19733 4.29116
        2 3.19646 4.28975
        3.19733 3.19733 4.29116
        4.33099 3.21606 4.33099
        -0.364708 4.36471 4.36471
        0.783942 4.33099 4.33099
        2 4.32955 4.32955
        3.21606 4.33099 4.33099
        4.36471 4.36471 4.36471
      </DataArray>
    </Points>
    <Cells>
      <DataArray type="Int32" Name="connectivity" format="ascii"/>
      <DataArray type="Int32" Name="offsets" format="ascii"/>
      <DataArray type="UInt8" Name="types" format="ascii"/>
    </Cells>
  </Piece>
  </UnstructuredGrid>
</VTKFile>
