<VTKFile type="UnstructuredGrid" version="0.1">
  <UnstructuredGrid>
  <Piece NumberOfPoints="125" NumberOfCells="0">
    <PointData Scalars="Radius">
      <DataArray type="Float64" Name="Radius" format="ascii">
        0.5
        0.5
        0.5
        0.5
        0.5
        0.5
        0.5
        0.5
        0.5
        0.5
        0.5
        0.5
        0.5
        0.5
        0.5
        0.5
        0.5
        0.5
        0.5
        0.5
        0.5
        0.5
        0.5
        0.5
        0.5
        0.5
        0.5
        0.5
        0.5
        0.5
        0.5
        0.5
        0.5
        0.5
        0.5
        0.5
        0.5
        0.5
        0.5
        0.5
        0.5
        0.5
        0.5
        0.5
        0.5
        0.5
        0.5
        0.5
        0.5
        0.5
        0.5
        0.5
        0.5
        0.5
        0.5
        0.5
        0.5
        0.5
        0.5
        0.5
        0.5
        0.5
        0.5
        0.5
        0.5
        0.5
        0.5
        0.5
        0.5
        0.5
        0.5
        0.5
        0.5
        0.5
        0.5
        0.5
        0.5
        0.5
        0.5
        0.5
        0.5
        0.5
        0.5
        0.5
        0.5
        0.5
        0.5
        0.5
        0.5
        0.5
        0.5
        0.5
        0.5
        0.5
        0.5
        0.5
        0.5
        0.5
        0.5
        0.5
        0.5
        0.5
        0.5
        0.5
        0.5
        0.5
        0.5
        0.5
        0.5
        0.5
        0.5
        0.5
        0.5
        0.5
        0.5
        0.5
        0.5
        0.5
        0.5
        0.5
        0.5
        0.5
        0.5
        0.5
        0.5
      </DataArray>
    </PointData>
    <Points>
      <DataArray type="Float64" NumberOfComponents="3" format="ascii">
        -0.642303 -0.642303 -0.642303
        0.452091 -0.545108 -0.545108
        2 -0.55597 -0.55597
        3.54791 -0.545108 -0.545108
        4.6423 -0.642303 -0.642303
        -0.545108 0.452091 -0.545108
        0.553331 0.553331 -0.419272
        2 0.558615 -0.431327
        3.44667 0.553331 -0.419272
        4.54511 0.452091 -0.545108
        -0.55597 2 -0.55597
        0.558615 2 -0.431327
        2 2 -0.440938
        3.44138 2 -0.431327
        4.55597 2 -0.55597
        -0.545108 3.54791 -0.545108
        0.553331 3.44667 -0.419272
        2 3.44138 -0.431327
        3.44667 3.44667 -0.419272
        4.54511 3.54791 -0.545108
        -0.642303 4.6423 -0.642303
        0.452091 4.54511 -0.545108
        2 4.55597 -0.55597
        3.54791 4.54511 -0.545108
        4.6423 4.6423 -0.642303
        -0.545108 -0.545108 0.452091
        0.553331 -0.419272 0.553331
        2 -0.431327 0.558615
        3.44667 -0.419272 0.553331
        4.54511 -0.545108 0.452091
        -0.419272 0.553331 0.553331
        0.686581 0.686581 0.686581
        2 0.690818 0.690818
        3.31342 0.686581 0.686581
        4.41927 0.553331 0.553331
        -0.431327 2 0.558615
        0.690818 2 0.690818
        2 2 0.695808
        3.30918 2 0.690818
        4.43133 2 0.558615
        -0.419272 3.44667 0.553331
        0.686581 3.31342 0.686581
        2 3.30918 0.690818
        3.31342 3.31342 0.686581
        4.41927 3.44667 0.553331
        -0.545108 4.54511 0.452091
        0.553331 4.41927 0.553331
        2 4.43133 0.558615
        3.44667 4.41927 0.553331
        4.54511 4.54511 0.452091
        -0.55597 -0.55597 2
        0.558615 -0.431327 2
        2 -0.440938 2
        3.44138 -0.431327 2
        4.55597 -0.55597 2
        -0.431327 0.558615 2
        0.690818 0.690818 2
        2 0.695808 2
        3.30918 0.690818 2
        4.43133 0.558615 2
        -0.440938 2 2
        0.695808 2 2
        2 2 2
        3.30419 2 2
        4.44094 2 2
        -0.431327 3.44138 2
        0.690818 3.30918 2
        2 3.30419 2
        3.30918 3.30918 2
        4.43133 3.44138 2
        -0.55597 4.55597 2
        0.558615 4.43133 2
        2 4.44094 2
        3.44138 4.43133 2
        4.55597 4.55597 2
        -0.545108 -0.545108 3.54791
        0.553331 -0.419272 3.44667
        2 -0.431327 3.44138
        3.44667 -0.419272 3.44667
        4.54511 -0.545108 3.54791
        -0.419272 0.553331 3.44667
        0.686581 0.686581 3.31342
        2 0.690818 3.30918
        3.31342 0.686581 3.31342
        4.41927 0.553331 3.44667
        -0.431327 2 3.44138
        0.690818 2 3.30918
        2 2 3.30419
        3.30918 2 3.30918
        4.43133 2 3.44138
        -0.419272 3.44667 3.44667
        0.686581 3.31342 3.31342
        2 3.30918 3.30918
        3.31342 3.31342 3.31342
        4.41927 3.44667 3.44667
        -0.545108 4.54511 3.54791
        0.553331 4.41927 3.44667
        2 4.43133 3.44138
        3.44667 4.41927 3.44667
        4.54511 4.54511 3.54791
        -0.642303 -0.642303 4.6423
        0.452091 -0.545108 4.54511
        2 -0.55597 4.55597
        3.54791 -0.545108 4.54511
        4.6423 -0.642303 4.6423
        -0.545108 0.452091 4.54511
        0.553331 0.553331 4.41927
        2 0.558615 4.43133
        3.44667 0.553331 4.41927
        4.54511 0.452091 4.54511
        -0.55597 2 4.55597
        0.558615 2 4.43133
        2 2 4.44094
        3.44138 2 4.43133
        4.55597 2 4.55597
        -0.545108 3.54791 4.54511
        0.553331 3.44667 4.41927
        2 3.44138 4.43133
        3.44667 3.44667 4.41927
        4.54511 3.54791 4.54511
        -0.642303 4.6423 4.6423
        0.452091 4.54511 4.54511
        2 4.55597 4.55597
        3.54791 4.54511 4.54511
        4.6423 4.6423 4.6423
      </DataArray>
    </Points>
    <Cells>
      <DataArray type="Int32" Name="connectivity" format="ascii"/>
      <DataArray type="Int32" Name="offsets" format="ascii"/>
      <DataArray type="UInt8" Name="types" format="ascii"/>
    </Cells>
  </Piece>
  </UnstructuredGrid>
</VTKFile>
