<VTKFile type="UnstructuredGrid" version="0.1">
  <UnstructuredGrid>
  <Piece NumberOfPoints="125" NumberOfCells="0">
    <PointData Scalars="Radius">
      <DataArray type="Float64" Name="Radius" format="ascii">
        0.5
        0.5
        0.5
        0.5
        0.5
        0.5
        0.5
        0.5
        0.5
        0.5
        0.5
        0.5
        0.5
        0.5
        0.5
        0.5
        0.5
        0.5
        0.5
        0.5
        0.5
        0.5
        0.5
        0.5
        0.5
        0.5
        0.5
        0.5
        0.5
        0.5
        0.5
        0.5
        0.5
        0.5
        0.5
        0.5
        0.5
        0.5
        0.5
        0.5
        0.5
        0.5
        0.5
        0.5
        0.5
        0.5
        0.5
        0.5
        0.5
        0.5
        0.5
        0.5
        0.5
        0.5
        0.5
        0.5
        0.5
        0.5
        0.5
        0.5
        0.5
        0.5
        0.5
        0.5
        0.5
        0.5
        0.5
        0.5
        0.5
        0.5
        0.5
        0.5
        0.5
        0.5
        0.5
        0.5
        0.5
        0.5
        0.5
        0.5
        0.5
        0.5
        0.5
        0.5
        0.5
        0.5
        0.5
        0.5
        0.5
        0.5
        0.5
        0.5
        0.5
        0.5
        0.5
        0.5
        0.5
        0.5
        0.5
        0.5
        0.5
        0.5
        0.5
        0.5
        0.5
        0.5
        0.5
        0.5
        0.5
        0.5
        0.5
        0.5
        0.5
        0.5
        0.5
        0.5
        0.5
        0.5
        0.5
        0.5
        0.5
        0.5
        0.5
        0.5
        0.5
      </DataArray>
    </PointData>
    <Points>
      <DataArray type="Float64" NumberOfComponents="3" format="ascii">
        -0.474625 -0.474625 -0.474625
        0.694326 -0.42637 -0.42637
        2 -0.426244 -0.426244
        3.30567 -0.42637 -0.42637
        4.47462 -0.474625 -0.474625
        -0.42637 0.694326 -0.42637
        0.728391 0.728391 -0.369115
        2 0.729969 -0.369284
        3.27161 0.728391 -0.369115
        4.42637 0.694326 -0.42637
        -0.426244 2 -0.426244
        0.729969 2 -0.369284
        2 2 -0.369542
        3.27003 2 -0.369284
        4.42624 2 -0.426244
        -0.42637 3.30567 -0.42637
        0.728391 3.27161 -0.369115
        2 3.27003 -0.369284
        3.27161 3.27161 -0.369115
        4.42637 3.30567 -0.42637
        -0.474625 4.47462 -0.474625
        0.694326 4.42637 -0.42637
        2 4.42624 -0.426244
        3.30567 4.42637 -0.42637
        4.47462 4.47462 -0.474625
        -0.42637 -0.42637 0.694326
        0.728391 -0.369115 0.728391
        2 -0.369284 0.729969
        3.27161 -0.369115 0.728391
        4.42637 -0.42637 0.694326
        -0.369115 0.728391 0.728391
        0.773988 0.773988 0.773988
        2 0.775708 0.775708
        3.22601 0.773988 0.773988
        4.36911 0.728391 0.728391
        -0.369284 2 0.729969
        0.775708 2 0.775708
        2 2 0.777373
        3.22429 2 0.775708
        4.36928 2 0.729969
        -0.369115 3.27161 0.728391
        0.773988 3.22601 0.773988
        2 3.22429 0.775708
        3.22601 3.22601 0.773988
        4.36911 3.27161 0.728391
        -0.42637 4.42637 0.694326
        0.728391 4.36911 0.728391
        2 4.36928 0.729969
        3.27161 4.36911 0.728391
        4.42637 4.42637 0.694326
        -0.426244 -0.426244 2
        0.729969 -0.369284 2
        2 -0.369542 2
        3.27003 -0.369284 2
        4.42624 -0.426244 2
        -0.369284 0.729969 2
        0.775708 0.775708 2
        2 0.777373 2
        3.22429 0.775708 2
        4.36928 0.729969 2
        -0.369542 2 2
        0.777373 2 2
        2 2 2
        3.22263 2 2
        4.36954 2 2
        -0.369284 3.27003 2
        0.775708 3.22429 2
        2 3.22263 2
        3.22429 3.22429 2
        4.36928 3.27003 2
        -0.426244 4.42624 2
        0.729969 4.36928 2
        2 4.36954 2
        3.27003 4.36928 2
        4.42624 4.42624 2
        -0.42637 -0.42637 3.30567
        0.728391 -0.369115 3.27161
        2 -0.369284 3.27003
        3.27161 -0.369115 3.27161
        4.42637 -0.42637 3.30567
        -0.369115 0.728391 3.27161
        0.773988 0.773988 3.22601
        2 0.775708 3.22429
        3.22601 0.773988 3.22601
        4.36911 0.728391 3.27161
        -0.369284 2 3.27003
        0.775708 2 3.22429
        2 2 3.22263
        3.22429 2 3.22429
        4.36928 2 3.27003
        -0.369115 3.27161 3.27161
        0.773988 3.22601 3.22601
        2 3.22429 3.22429
        3.22601 3.22601 3.22601
        4.36911 3.27161 3.27161
        -0.42637 4.42637 3.30567
        0.728391 4.36911 3.27161
        2 4.36928 3.27003
        3.27161 4.36911 3.27161
        4.42637 4.42637 3.30567
        -0.474625 -0.474625 4.47462
        0.694326 -0.42637 4.42637
        2 -0.426244 4.42624
        3.30567 -0.42637 4.42637
        4.47462 -0.474625 4.47462
        -0.42637 0.694326 4.42637
        0.728391 0.728391 4.36911
        2 0.729969 4.36928
        3.27161 0.728391 4.36911
        4.42637 0.694326 4.42637
        -0.426244 2 4.42624
        0.729969 2 4.36928
        2 2 4.36954
        3.27003 2 4.36928
        4.42624 2 4.42624
        -0.42637 3.30567 4.42637
        0.728391 3.27161 4.36911
        2 3.27003 4.36928
        3.27161 3.27161 4.36911
        4.42637 3.30567 4.42637
        -0.474625 4.47462 4.47462
        0.694326 4.42637 4.42637
        2 4.42624 4.42624
        3.30567 4.42637 4.42637
        4.47462 4.47462 4.47462
      </DataArray>
    </Points>
    <Cells>
      <DataArray type="Int32" Name="connectivity" format="ascii"/>
      <DataArray type="Int32" Name="offsets" format="ascii"/>
      <DataArray type="UInt8" Name="types" format="ascii"/>
    </Cells>
  </Piece>
  </UnstructuredGrid>
</VTKFile>
