<VTKFile type="UnstructuredGrid" version="0.1">
  <UnstructuredGrid>
  <Piece NumberOfPoints="125" NumberOfCells="0">
    <PointData Scalars="Radius">
      <DataArray type="Float64" Name="Radius" format="ascii">
        0.5
        0.5
        0.5
        0.5
        0.5
        0.5
        0.5
        0.5
        0.5
        0.5
        0.5
        0.5
        0.5
        0.5
        0.5
        0.5
        0.5
        0.5
        0.5
        0.5
        0.5
        0.5
        0.5
        0.5
        0.5
        0.5
        0.5
        0.5
        0.5
        0.5
        0.5
        0.5
        0.5
        0.5
        0.5
        0.5
        0.5
        0.5
        0.5
        0.5
        0.5
        0.5
        0.5
        0.5
        0.5
        0.5
        0.5
        0.5
        0.5
        0.5
        0.5
        0.5
        0.5
        0.5
        0.5
        0.5
        0.5
        0.5
        0.5
        0.5
        0.5
        0.5
        0.5
        0.5
        0.5
        0.5
        0.5
        0.5
        0.5
        0.5
        0.5
        0.5
        0.5
        0.5
        0.5
        0.5
        0.5
        0.5
        0.5
        0.5
        0.5
        0.5
        0.5
        0.5
        0.5
        0.5
        0.5
        0.5
        0.5
        0.5
        0.5
        0.5
        0.5
        0.5
        0.5
        0.5
        0.5
        0.5
        0.5
        0.5
        0.5
        0.5
        0.5
        0.5
        0.5
        0.5
        0.5
        0.5
        0.5
        0.5
        0.5
        0.5
        0.5
        0.5
        0.5
        0.5
        0.5
        0.5
        0.5
        0.5
        0.5
        0.5
        0.5
        0.5
        0.5
      </DataArray>
    </PointData>
    <Points>
      <DataArray type="Float64" NumberOfComponents="3" format="ascii">
        -0.96703 -0.96703 -0.96703
        0.119249 -0.614303 -0.614303
        2 -0.686475 -0.686475
        3.88075 -0.614303 -0.614303
        4.96703 -0.96703 -0.96703
        -0.614303 0.119249 -0.614303
        0.497807 0.497807 -0.295813
        2 0.44115 -0.298524
        3.50219 0.497807 -0.295813
        4.6143 0.119249 -0.614303
        -0.686475 2 -0.686475
        0.44115 2 -0.298524
        2 2 -0.325289
        3.55885 2 -0.298524
        4.68648 2 -0.686475
        -0.614303 3.88075 -0.614303
        0.497807 3.50219 -0.295813
        2 3.55885 -0.298524
        3.50219 3.50219 -0.295813
        4.6143 3.88075 -0.614303
        -0.96703 4.96703 -0.96703
        0.119249 4.6143 -0.614303
        2 4.68648 -0.686475
        3.88075 4.6143 -0.614303
        4.96703 4.96703 -0.96703
        -0.614303 -0.614303 0.119249
        0.497807 -0.295813 0.497807
        2 -0.298524 0.44115
        3.50219 -0.295813 0.497807
        4.6143 -0.614303 0.119249
        -0.295813 0.497807 0.497807
        0.861629 0.861629 0.861629
        2 0.832887 0.832887
        3.13837 0.861629 0.861629
        4.29581 0.497807 0.497807
        -0.298524 2 0.44115
        0.832887 2 0.832887
        2 2 0.820824
        3.16711 2 0.832887
        4.29852 2 0.44115
        -0.295813 3.50219 0.497807
        0.861629 3.13837 0.861629
        2 3.16711 0.832887
        3.13837 3.13837 0.861629
        4.29581 3.50219 0.497807
        -0.614303 4.6143 0.119249
        0.497807 4.29581 0.497807
        2 4.29852 0.44115
        3.50219 4.29581 0.497807
        4.6143 4.6143 0.119249
        -0.686475 -0.686475 2
        0.44115 -0.298524 2
        2 -0.325289 2
        3.55885 -0.298524 2
        4.68648 -0.686475 2
        -0.298524 0.44115 2
        0.832887 0.832887 2
        2 0.820824 2
        3.16711 0.832887 2
        4.29852 0.44115 2
        -0.325289 2 2
        0.820824 2 2
        2 2 2
        3.17918 2 2
        4.32529 2 2
        -0.298524 3.55885 2
        0.832887 3.16711 2
        2 3.17918 2
        3.16711 3.16711 2
        4.29852 3.55885 2
        -0.686475 4.68648 2
        0.44115 4.29852 2
        2 4.32529 2
        3.55885 4.29852 2
        4.68648 4.68648 2
        -0.614303 -0.614303 3.88075
        0.497807 -0.295813 3.50219
        2 -0.298524 3.55885
        3.50219 -0.295813 3.50219
        4.6143 -0.614303 3.88075
        -0.295813 0.497807 3.50219
        0.861629 0.861629 3.13837
        2 0.832887 3.16711
        3.13837 0.861629 3.13837
        4.29581 0.497807 3.50219
        -0.298524 2 3.55885
        0.832887 2 3.16711
        2 2 3.17918
        3.16711 2 3.16711
        4.29852 2 3.55885
        -0.295813 3.50219 3.50219
        0.861629 3.13837 3.13837
        2 3.16711 3.16711
        3.13837 3.13837 3.13837
        4.29581 3.50219 3.50219
        -0.614303 4.6143 3.88075
        0.497807 4.29581 3.50219
        2 4.29852 3.55885
        3.50219 4.29581 3.50219
        4.6143 4.6143 3.88075
        -0.96703 -0.96703 4.96703
        0.119249 -0.614303 4.6143
        2 -0.686475 4.68648
        3.88075 -0.614303 4.6143
        4.96703 -0.96703 4.96703
        -0.614303 0.119249 4.6143
        0.497807 0.497807 4.29581
        2 0.44115 4.29852
        3.50219 0.497807 4.29581
        4.6143 0.119249 4.6143
        -0.686475 2 4.68648
        0.44115 2 4.29852
        2 2 4.32529
        3.55885 2 4.29852
        4.68648 2 4.68648
        -0.614303 3.88075 4.6143
        0.497807 3.50219 4.29581
        2 3.55885 4.29852
        3.50219 3.50219 4.29581
        4.6143 3.88075 4.6143
        -0.96703 4.96703 4.96703
        0.119249 4.6143 4.6143
        2 4.68648 4.68648
        3.88075 4.6143 4.6143
        4.96703 4.96703 4.96703
      </DataArray>
    </Points>
    <Cells>
      <DataArray type="Int32" Name="connectivity" format="ascii"/>
      <DataArray type="Int32" Name="offsets" format="ascii"/>
      <DataArray type="UInt8" Name="types" format="ascii"/>
    </Cells>
  </Piece>
  </UnstructuredGrid>
</VTKFile>
