<VTKFile type="UnstructuredGrid" version="0.1">
  <UnstructuredGrid>
  <Piece NumberOfPoints="125" NumberOfCells="0">
    <PointData Scalars="Radius">
      <DataArray type="Float64" Name="Radius" format="ascii">
        0.5
        0.5
        0.5
        0.5
        0.5
        0.5
        0.5
        0.5
        0.5
        0.5
        0.5
        0.5
        0.5
        0.5
        0.5
        0.5
        0.5
        0.5
        0.5
        0.5
        0.5
        0.5
        0.5
        0.5
        0.5
        0.5
        0.5
        0.5
        0.5
        0.5
        0.5
        0.5
        0.5
        0.5
        0.5
        0.5
        0.5
        0.5
        0.5
        0.5
        0.5
        0.5
        0.5
        0.5
        0.5
        0.5
        0.5
        0.5
        0.5
        0.5
        0.5
        0.5
        0.5
        0.5
        0.5
        0.5
        0.5
        0.5
        0.5
        0.5
        0.5
        0.5
        0.5
        0.5
        0.5
        0.5
        0.5
        0.5
        0.5
        0.5
        0.5
        0.5
        0.5
        0.5
        0.5
        0.5
        0.5
        0.5
        0.5
        0.5
        0.5
        0.5
        0.5
        0.5
        0.5
        0.5
        0.5
        0.5
        0.5
        0.5
        0.5
        0.5
        0.5
        0.5
        0.5
        0.5
        0.5
        0.5
        0.5
        0.5
        0.5
        0.5
        0.5
        0.5
        0.5
        0.5
        0.5
        0.5
        0.5
        0.5
        0.5
        0.5
        0.5
        0.5
        0.5
        0.5
        0.5
        0.5
        0.5
        0.5
        0.5
        0.5
        0.5
        0.5
        0.5
      </DataArray>
    </PointData>
    <Points>
      <DataArray type="Float64" NumberOfComponents="3" format="ascii">
        -0.0149919 -0.0149919 -0.0149919
        0.999499 -0.0138935 -0.0138935
        2 -0.0138494 -0.0138494
        3.0005 -0.0138935 -0.0138935
        4.01499 -0.0149919 -0.0149919
        -0.0138935 0.999499 -0.0138935
        0.999633 0.999633 -0.0125698
        2 0.999634 -0.0125122
        3.00037 0.999633 -0.0125698
        4.01389 0.999499 -0.0138935
        -0.0138494 2 -0.0138494
        0.999634 2 -0.0125122
        2 2 -0.0124547
        3.00037 2 -0.0125122
        4.01385 2 -0.0138494
        -0.0138935 3.0005 -0.0138935
        0.999633 3.00037 -0.0125698
        2 3.00037 -0.0125122
        3.00037 3.00037 -0.0125698
        4.01389 3.0005 -0.0138935
        -0.0149919 4.01499 -0.0149919
        0.999499 4.01389 -0.0138935
        2 4.01385 -0.0138494
        3.0005 4.01389 -0.0138935
        4.01499 4.01499 -0.0149919
        -0.0138935 -0.0138935 0.999499
        0.999633 -0.0125698 0.999633
        2 -0.0125122 0.999634
        3.00037 -0.0125698 0.999633
        4.01389 -0.0138935 0.999499
        -0.0125698 0.999633 0.999633
        0.999804 0.999804 0.999804
        2 0.999806 0.999806
        3.0002 0.999804 0.999804
        4.01257 0.999633 0.999633
        -0.0125122 2 0.999634
        0.999806 2 0.999806
        2 2 0.999808
        3.00019 2 0.999806
        4.01251 2 0.999634
        -0.0125698 3.00037 0.999633
        0.999804 3.0002 0.999804
        2 3.00019 0.999806
        3.0002 3.0002 0.999804
        4.01257 3.00037 0.999633
        -0.0138935 4.01389 0.999499
        0.999633 4.01257 0.999633
        2 4.01251 0.999634
        3.00037 4.01257 0.999633
        4.01389 4.01389 0.999499
        -0.0138494 -0.0138494 2
        0.999634 -0.0125122 2
        2 -0.0124547 2
        3.00037 -0.0125122 2
        4.01385 -0.0138494 2
        -0.0125122 0.999634 2
        0.999806 0.999806 2
        2 0.999808 2
        3.00019 0.999806 2
        4.01251 0.999634 2
        -0.0124547 2 2
        0.999808 2 2
        2 2 2
        3.00019 2 2
        4.01245 2 2
        -0.0125122 3.00037 2
        0.999806 3.00019 2
        2 3.00019 2
        3.00019 3.00019 2
        4.01251 3.00037 2
        -0.0138494 4.01385 2
        0.999634 4.01251 2
        2 4.01245 2
        3.00037 4.01251 2
        4.01385 4.01385 2
        -0.0138935 -0.0138935 3.0005
        0.999633 -0.0125698 3.00037
        2 -0.0125122 3.00037
        3.00037 -0.0125698 3.00037
        4.01389 -0.0138935 3.0005
        -0.0125698 0.999633 3.00037
        0.999804 0.999804 3.0002
        2 0.999806 3.00019
        3.0002 0.999804 3.0002
        4.01257 0.999633 3.00037
        -0.0125122 2 3.00037
        0.999806 2 3.00019
        2 2 3.00019
        3.00019 2 3.00019
        4.01251 2 3.00037
        -0.0125698 3.00037 3.00037
        0.999804 3.0002 3.0002
        2 3.00019 3.00019
        3.0002 3.0002 3.0002
        4.01257 3.00037 3.00037
        -0.0138935 4.01389 3.0005
        0.999633 4.01257 3.00037
        2 4.01251 3.00037
        3.00037 4.01257 3.00037
        4.01389 4.01389 3.0005
        -0.0149919 -0.0149919 4.01499
        0.999499 -0.0138935 4.01389
        2 -0.0138494 4.01385
        3.0005 -0.0138935 4.01389
        4.01499 -0.0149919 4.01499
        -0.0138935 0.999499 4.01389
        0.999633 0.999633 4.01257
        2 0.999634 4.01251
        3.00037 0.999633 4.01257
        4.01389 0.999499 4.01389
        -0.0138494 2 4.01385
        0.999634 2 4.01251
        2 2 4.01245
        3.00037 2 4.01251
        4.01385 2 4.01385
        -0.0138935 3.0005 4.01389
        0.999633 3.00037 4.01257
        2 3.00037 4.01251
        3.00037 3.00037 4.01257
        4.01389 3.0005 4.01389
        -0.0149919 4.01499 4.01499
        0.999499 4.01389 4.01389
        2 4.01385 4.01385
        3.0005 4.01389 4.01389
        4.01499 4.01499 4.01499
      </DataArray>
    </Points>
    <Cells>
      <DataArray type="Int32" Name="connectivity" format="ascii"/>
      <DataArray type="Int32" Name="offsets" format="ascii"/>
      <DataArray type="UInt8" Name="types" format="ascii"/>
    </Cells>
  </Piece>
  </UnstructuredGrid>
</VTKFile>
