<VTKFile type="UnstructuredGrid" version="0.1">
  <UnstructuredGrid>
  <Piece NumberOfPoints="125" NumberOfCells="0">
    <PointData Scalars="Radius">
      <DataArray type="Float64" Name="Radius" format="ascii">
        0.5
        0.5
        0.5
        0.5
        0.5
        0.5
        0.5
        0.5
        0.5
        0.5
        0.5
        0.5
        0.5
        0.5
        0.5
        0.5
        0.5
        0.5
        0.5
        0.5
        0.5
        0.5
        0.5
        0.5
        0.5
        0.5
        0.5
        0.5
        0.5
        0.5
        0.5
        0.5
        0.5
        0.5
        0.5
        0.5
        0.5
        0.5
        0.5
        0.5
        0.5
        0.5
        0.5
        0.5
        0.5
        0.5
        0.5
        0.5
        0.5
        0.5
        0.5
        0.5
        0.5
        0.5
        0.5
        0.5
        0.5
        0.5
        0.5
        0.5
        0.5
        0.5
        0.5
        0.5
        0.5
        0.5
        0.5
        0.5
        0.5
        0.5
        0.5
        0.5
        0.5
        0.5
        0.5
        0.5
        0.5
        0.5
        0.5
        0.5
        0.5
        0.5
        0.5
        0.5
        0.5
        0.5
        0.5
        0.5
        0.5
        0.5
        0.5
        0.5
        0.5
        0.5
        0.5
        0.5
        0.5
        0.5
        0.5
        0.5
        0.5
        0.5
        0.5
        0.5
        0.5
        0.5
        0.5
        0.5
        0.5
        0.5
        0.5
        0.5
        0.5
        0.5
        0.5
        0.5
        0.5
        0.5
        0.5
        0.5
        0.5
        0.5
        0.5
        0.5
        0.5
      </DataArray>
    </PointData>
    <Points>
      <DataArray type="Float64" NumberOfComponents="3" format="ascii">
        -0.337939 -0.337939 -0.337939
        0.80395 -0.307226 -0.307226
        2 -0.305688 -0.305688
        3.19605 -0.307226 -0.307226
        4.33794 -0.337939 -0.337939
        -0.307226 0.80395 -0.307226
        0.82006 0.82006 -0.270913
        2 0.820808 -0.269343
        3.17994 0.82006 -0.270913
        4.30723 0.80395 -0.307226
        -0.305688 2 -0.305688
        0.820808 2 -0.269343
        2 2 -0.267853
        3.17919 2 -0.269343
        4.30569 2 -0.305688
        -0.307226 3.19605 -0.307226
        0.82006 3.17994 -0.270913
        2 3.17919 -0.269343
        3.17994 3.17994 -0.270913
        4.30723 3.19605 -0.307226
        -0.337939 4.33794 -0.337939
        0.80395 4.30723 -0.307226
        2 4.30569 -0.305688
        3.19605 4.30723 -0.307226
        4.33794 4.33794 -0.337939
        -0.307226 -0.307226 0.80395
        0.82006 -0.270913 0.82006
        2 -0.269343 0.820808
        3.17994 -0.270913 0.82006
        4.30723 -0.307226 0.80395
        -0.270913 0.82006 0.82006
        0.841291 0.841291 0.841291
        2 0.842219 0.842219
        3.15871 0.841291 0.841291
        4.27091 0.82006 0.82006
        -0.269343 2 0.820808
        0.842219 2 0.842219
        2 2 0.843139
        3.15778 2 0.842219
        4.26934 2 0.820808
        -0.270913 3.17994 0.82006
        0.841291 3.15871 0.841291
        2 3.15778 0.842219
        3.15871 3.15871 0.841291
        4.27091 3.17994 0.82006
        -0.307226 4.30723 0.80395
        0.82006 4.27091 0.82006
        2 4.26934 0.820808
        3.17994 4.27091 0.82006
        4.30723 4.30723 0.80395
        -0.305688 -0.305688 2
        0.820808 -0.269343 2
        2 -0.267853 2
        3.17919 -0.269343 2
        4.30569 -0.305688 2
        -0.269343 0.820808 2
        0.842219 0.842219 2
        2 0.843139 2
        3.15778 0.842219 2
        4.26934 0.820808 2
        -0.267853 2 2
        0.843139 2 2
        2 2 2
        3.15686 2 2
        4.26785 2 2
        -0.269343 3.17919 2
        0.842219 3.15778 2
        2 3.15686 2
        3.15778 3.15778 2
        4.26934 3.17919 2
        -0.305688 4.30569 2
        0.820808 4.26934 2
        2 4.26785 2
        3.17919 4.26934 2
        4.30569 4.30569 2
        -0.307226 -0.307226 3.19605
        0.82006 -0.270913 3.17994
        2 -0.269343 3.17919
        3.17994 -0.270913 3.17994
        4.30723 -0.307226 3.19605
        -0.270913 0.82006 3.17994
        0.841291 0.841291 3.15871
        2 0.842219 3.15778
        3.15871 0.841291 3.15871
        4.27091 0.82006 3.17994
        -0.269343 2 3.17919
        0.842219 2 3.15778
        2 2 3.15686
        3.15778 2 3.15778
        4.26934 2 3.17919
        -0.270913 3.17994 3.17994
        0.841291 3.15871 3.15871
        2 3.15778 3.15778
        3.15871 3.15871 3.15871
        4.27091 3.17994 3.17994
        -0.307226 4.30723 3.19605
        0.82006 4.27091 3.17994
        2 4.26934 3.17919
        3.17994 4.27091 3.17994
        4.30723 4.30723 3.19605
        -0.337939 -0.337939 4.33794
        0.80395 -0.307226 4.30723
        2 -0.305688 4.30569
        3.19605 -0.307226 4.30723
        4.33794 -0.337939 4.33794
        -0.307226 0.80395 4.30723
        0.82006 0.82006 4.27091
        2 0.820808 4.26934
        3.17994 0.82006 4.27091
        4.30723 0.80395 4.30723
        -0.305688 2 4.30569
        0.820808 2 4.26934
        2 2 4.26785
        3.17919 2 4.26934
        4.30569 2 4.30569
        -0.307226 3.19605 4.30723
        0.82006 3.17994 4.27091
        2 3.17919 4.26934
        3.17994 3.17994 4.27091
        4.30723 3.19605 4.30723
        -0.337939 4.33794 4.33794
        0.80395 4.30723 4.30723
        2 4.30569 4.30569
        3.19605 4.30723 4.30723
        4.33794 4.33794 4.33794
      </DataArray>
    </Points>
    <Cells>
      <DataArray type="Int32" Name="connectivity" format="ascii"/>
      <DataArray type="Int32" Name="offsets" format="ascii"/>
      <DataArray type="UInt8" Name="types" format="ascii"/>
    </Cells>
  </Piece>
  </UnstructuredGrid>
</VTKFile>
