<VTKFile type="UnstructuredGrid" version="0.1">
  <UnstructuredGrid>
  <Piece NumberOfPoints="125" NumberOfCells="0">
    <PointData Scalars="Radius">
      <DataArray type="Float64" Name="Radius" format="ascii">
        0.5
        0.5
        0.5
        0.5
        0.5
        0.5
        0.5
        0.5
        0.5
        0.5
        0.5
        0.5
        0.5
        0.5
        0.5
        0.5
        0.5
        0.5
        0.5
        0.5
        0.5
        0.5
        0.5
        0.5
        0.5
        0.5
        0.5
        0.5
        0.5
        0.5
        0.5
        0.5
        0.5
        0.5
        0.5
        0.5
        0.5
        0.5
        0.5
        0.5
        0.5
        0.5
        0.5
        0.5
        0.5
        0.5
        0.5
        0.5
        0.5
        0.5
        0.5
        0.5
        0.5
        0.5
        0.5
        0.5
        0.5
        0.5
        0.5
        0.5
        0.5
        0.5
        0.5
        0.5
        0.5
        0.5
        0.5
        0.5
        0.5
        0.5
        0.5
        0.5
        0.5
        0.5
        0.5
        0.5
        0.5
        0.5
        0.5
        0.5
        0.5
        0.5
        0.5
        0.5
        0.5
        0.5
        0.5
        0.5
        0.5
        0.5
        0.5
        0.5
        0.5
        0.5
        0.5
        0.5
        0.5
        0.5
        0.5
        0.5
        0.5
        0.5
        0.5
        0.5
        0.5
        0.5
        0.5
        0.5
        0.5
        0.5
        0.5
        0.5
        0.5
        0.5
        0.5
        0.5
        0.5
        0.5
        0.5
        0.5
        0.5
        0.5
        0.5
        0.5
        0.5
      </DataArray>
    </PointData>
    <Points>
      <DataArray type="Float64" NumberOfComponents="3" format="ascii">
        -0.467655 -0.467655 -0.467655
        0.700631 -0.420475 -0.420475
        2 -0.42021 -0.42021
        3.29937 -0.420475 -0.420475
        4.46765 -0.467655 -0.467655
        -0.420475 0.700631 -0.420475
        0.733426 0.733426 -0.364552
        2 0.734942 -0.364566
        3.26657 0.733426 -0.364552
        4.42047 0.700631 -0.420475
        -0.42021 2 -0.42021
        0.734942 2 -0.364566
        2 2 -0.364677
        3.26506 2 -0.364566
        4.42021 2 -0.42021
        -0.420475 3.29937 -0.420475
        0.733426 3.26657 -0.364552
        2 3.26506 -0.364566
        3.26657 3.26657 -0.364552
        4.42047 3.29937 -0.420475
        -0.467655 4.46765 -0.467655
        0.700631 4.42047 -0.420475
        2 4.42021 -0.42021
        3.29937 4.42047 -0.420475
        4.46765 4.46765 -0.467655
        -0.420475 -0.420475 0.700631
        0.733426 -0.364552 0.733426
        2 -0.364566 0.734942
        3.26657 -0.364552 0.733426
        4.42047 -0.420475 0.700631
        -0.364552 0.733426 0.733426
        0.777321 0.777321 0.777321
        2 0.778992 0.778992
        3.22268 0.777321 0.777321
        4.36455 0.733426 0.733426
        -0.364566 2 0.734942
        0.778992 2 0.778992
        2 2 0.780608
        3.22101 2 0.778992
        4.36457 2 0.734942
        -0.364552 3.26657 0.733426
        0.777321 3.22268 0.777321
        2 3.22101 0.778992
        3.22268 3.22268 0.777321
        4.36455 3.26657 0.733426
        -0.420475 4.42047 0.700631
        0.733426 4.36455 0.733426
        2 4.36457 0.734942
        3.26657 4.36455 0.733426
        4.42047 4.42047 0.700631
        -0.42021 -0.42021 2
        0.734942 -0.364566 2
        2 -0.364677 2
        3.26506 -0.364566 2
        4.42021 -0.42021 2
        -0.364566 0.734942 2
        0.778992 0.778992 2
        2 0.780608 2
        3.22101 0.778992 2
        4.36457 0.734942 2
        -0.364677 2 2
        0.780608 2 2
        2 2 2
        3.21939 2 2
        4.36468 2 2
        -0.364566 3.26506 2
        0.778992 3.22101 2
        2 3.21939 2
        3.22101 3.22101 2
        4.36457 3.26506 2
        -0.42021 4.42021 2
        0.734942 4.36457 2
        2 4.36468 2
        3.26506 4.36457 2
        4.42021 4.42021 2
        -0.420475 -0.420475 3.29937
        0.733426 -0.364552 3.26657
        2 -0.364566 3.26506
        3.26657 -0.364552 3.26657
        4.42047 -0.420475 3.29937
        -0.364552 0.733426 3.26657
        0.777321 0.777321 3.22268
        2 0.778992 3.22101
        3.22268 0.777321 3.22268
        4.36455 0.733426 3.26657
        -0.364566 2 3.26506
        0.778992 2 3.22101
        2 2 3.21939
        3.22101 2 3.22101
        4.36457 2 3.26506
        -0.364552 3.26657 3.26657
        0.777321 3.22268 3.22268
        2 3.22101 3.22101
        3.22268 3.22268 3.22268
        4.36455 3.26657 3.26657
        -0.420475 4.42047 3.29937
        0.733426 4.36455 3.26657
        2 4.36457 3.26506
        3.26657 4.36455 3.26657
        4.42047 4.42047 3.29937
        -0.467655 -0.467655 4.46765
        0.700631 -0.420475 4.42047
        2 -0.42021 4.42021
        3.29937 -0.420475 4.42047
        4.46765 -0.467655 4.46765
        -0.420475 0.700631 4.42047
        0.733426 0.733426 4.36455
        2 0.734942 4.36457
        3.26657 0.733426 4.36455
        4.42047 0.700631 4.42047
        -0.42021 2 4.42021
        0.734942 2 4.36457
        2 2 4.36468
        3.26506 2 4.36457
        4.42021 2 4.42021
        -0.420475 3.29937 4.42047
        0.733426 3.26657 4.36455
        2 3.26506 4.36457
        3.26657 3.26657 4.36455
        4.42047 3.29937 4.42047
        -0.467655 4.46765 4.46765
        0.700631 4.42047 4.42047
        2 4.42021 4.42021
        3.29937 4.42047 4.42047
        4.46765 4.46765 4.46765
      </DataArray>
    </Points>
    <Cells>
      <DataArray type="Int32" Name="connectivity" format="ascii"/>
      <DataArray type="Int32" Name="offsets" format="ascii"/>
      <DataArray type="UInt8" Name="types" format="ascii"/>
    </Cells>
  </Piece>
  </UnstructuredGrid>
</VTKFile>
