<VTKFile type="UnstructuredGrid" version="0.1">
  <UnstructuredGrid>
  <Piece NumberOfPoints="125" NumberOfCells="0">
    <PointData Scalars="Radius">
      <DataArray type="Float64" Name="Radius" format="ascii">
        0.5
        0.5
        0.5
        0.5
        0.5
        0.5
        0.5
        0.5
        0.5
        0.5
        0.5
        0.5
        0.5
        0.5
        0.5
        0.5
        0.5
        0.5
        0.5
        0.5
        0.5
        0.5
        0.5
        0.5
        0.5
        0.5
        0.5
        0.5
        0.5
        0.5
        0.5
        0.5
        0.5
        0.5
        0.5
        0.5
        0.5
        0.5
        0.5
        0.5
        0.5
        0.5
        0.5
        0.5
        0.5
        0.5
        0.5
        0.5
        0.5
        0.5
        0.5
        0.5
        0.5
        0.5
        0.5
        0.5
        0.5
        0.5
        0.5
        0.5
        0.5
        0.5
        0.5
        0.5
        0.5
        0.5
        0.5
        0.5
        0.5
        0.5
        0.5
        0.5
        0.5
        0.5
        0.5
        0.5
        0.5
        0.5
        0.5
        0.5
        0.5
        0.5
        0.5
        0.5
        0.5
        0.5
        0.5
        0.5
        0.5
        0.5
        0.5
        0.5
        0.5
        0.5
        0.5
        0.5
        0.5
        0.5
        0.5
        0.5
        0.5
        0.5
        0.5
        0.5
        0.5
        0.5
        0.5
        0.5
        0.5
        0.5
        0.5
        0.5
        0.5
        0.5
        0.5
        0.5
        0.5
        0.5
        0.5
        0.5
        0.5
        0.5
        0.5
        0.5
        0.5
      </DataArray>
    </PointData>
    <Points>
      <DataArray type="Float64" NumberOfComponents="3" format="ascii">
        -0.66737 -0.66737 -0.66737
        0.402437 -0.5531 -0.5531
        2 -0.568028 -0.568028
        3.59756 -0.5531 -0.5531
        4.66737 -0.66737 -0.66737
        -0.5531 0.402437 -0.5531
        0.522219 0.522219 -0.403105
        2 0.527262 -0.420849
        3.47778 0.522219 -0.403105
        4.5531 0.402437 -0.5531
        -0.568028 2 -0.568028
        0.527262 2 -0.420849
        2 2 -0.434298
        3.47274 2 -0.420849
        4.56803 2 -0.568028
        -0.5531 3.59756 -0.5531
        0.522219 3.47778 -0.403105
        2 3.47274 -0.420849
        3.47778 3.47778 -0.403105
        4.5531 3.59756 -0.5531
        -0.66737 4.66737 -0.66737
        0.402437 4.5531 -0.5531
        2 4.56803 -0.568028
        3.59756 4.5531 -0.5531
        4.66737 4.66737 -0.66737
        -0.5531 -0.5531 0.402437
        0.522219 -0.403105 0.522219
        2 -0.420849 0.527262
        3.47778 -0.403105 0.522219
        4.5531 -0.5531 0.402437
        -0.403105 0.522219 0.522219
        0.680022 0.680022 0.680022
        2 0.683763 0.683763
        3.31998 0.680022 0.680022
        4.4031 0.522219 0.522219
        -0.420849 2 0.527262
        0.683763 2 0.683763
        2 2 0.689185
        3.31624 2 0.683763
        4.42085 2 0.527262
        -0.403105 3.47778 0.522219
        0.680022 3.31998 0.680022
        2 3.31624 0.683763
        3.31998 3.31998 0.680022
        4.4031 3.47778 0.522219
        -0.5531 4.5531 0.402437
        0.522219 4.4031 0.522219
        2 4.42085 0.527262
        3.47778 4.4031 0.522219
        4.5531 4.5531 0.402437
        -0.568028 -0.568028 2
        0.527262 -0.420849 2
        2 -0.434298 2
        3.47274 -0.420849 2
        4.56803 -0.568028 2
        -0.420849 0.527262 2
        0.683763 0.683763 2
        2 0.689185 2
        3.31624 0.683763 2
        4.42085 0.527262 2
        -0.434298 2 2
        0.689185 2 2
        2 2 2
        3.31082 2 2
        4.4343 2 2
        -0.420849 3.47274 2
        0.683763 3.31624 2
        2 3.31082 2
        3.31624 3.31624 2
        4.42085 3.47274 2
        -0.568028 4.56803 2
        0.527262 4.42085 2
        2 4.4343 2
        3.47274 4.42085 2
        4.56803 4.56803 2
        -0.5531 -0.5531 3.59756
        0.522219 -0.403105 3.47778
        2 -0.420849 3.47274
        3.47778 -0.403105 3.47778
        4.5531 -0.5531 3.59756
        -0.403105 0.522219 3.47778
        0.680022 0.680022 3.31998
        2 0.683763 3.31624
        3.31998 0.680022 3.31998
        4.4031 0.522219 3.47778
        -0.420849 2 3.47274
        0.683763 2 3.31624
        2 2 3.31082
        3.31624 2 3.31624
        4.42085 2 3.47274
        -0.403105 3.47778 3.47778
        0.680022 3.31998 3.31998
        2 3.31624 3.31624
        3.31998 3.31998 3.31998
        4.4031 3.47778 3.47778
        -0.5531 4.5531 3.59756
        0.522219 4.4031 3.47778
        2 4.42085 3.47274
        3.47778 4.4031 3.47778
        4.5531 4.5531 3.59756
        -0.66737 -0.66737 4.66737
        0.402437 -0.5531 4.5531
        2 -0.568028 4.56803
        3.59756 -0.5531 4.5531
        4.66737 -0.66737 4.66737
        -0.5531 0.402437 4.5531
        0.522219 0.522219 4.4031
        2 0.527262 4.42085
        3.47778 0.522219 4.4031
        4.5531 0.402437 4.5531
        -0.568028 2 4.56803
        0.527262 2 4.42085
        2 2 4.4343
        3.47274 2 4.42085
        4.56803 2 4.56803
        -0.5531 3.59756 4.5531
        0.522219 3.47778 4.4031
        2 3.47274 4.42085
        3.47778 3.47778 4.4031
        4.5531 3.59756 4.5531
        -0.66737 4.66737 4.66737
        0.402437 4.5531 4.5531
        2 4.56803 4.56803
        3.59756 4.5531 4.5531
        4.66737 4.66737 4.66737
      </DataArray>
    </Points>
    <Cells>
      <DataArray type="Int32" Name="connectivity" format="ascii"/>
      <DataArray type="Int32" Name="offsets" format="ascii"/>
      <DataArray type="UInt8" Name="types" format="ascii"/>
    </Cells>
  </Piece>
  </UnstructuredGrid>
</VTKFile>
