<VTKFile type="UnstructuredGrid" version="0.1">
  <UnstructuredGrid>
  <Piece NumberOfPoints="125" NumberOfCells="0">
    <PointData Scalars="Radius">
      <DataArray type="Float64" Name="Radius" format="ascii">
        0.5
        0.5
        0.5
        0.5
        0.5
        0.5
        0.5
        0.5
        0.5
        0.5
        0.5
        0.5
        0.5
        0.5
        0.5
        0.5
        0.5
        0.5
        0.5
        0.5
        0.5
        0.5
        0.5
        0.5
        0.5
        0.5
        0.5
        0.5
        0.5
        0.5
        0.5
        0.5
        0.5
        0.5
        0.5
        0.5
        0.5
        0.5
        0.5
        0.5
        0.5
        0.5
        0.5
        0.5
        0.5
        0.5
        0.5
        0.5
        0.5
        0.5
        0.5
        0.5
        0.5
        0.5
        0.5
        0.5
        0.5
        0.5
        0.5
        0.5
        0.5
        0.5
        0.5
        0.5
        0.5
        0.5
        0.5
        0.5
        0.5
        0.5
        0.5
        0.5
        0.5
        0.5
        0.5
        0.5
        0.5
        0.5
        0.5
        0.5
        0.5
        0.5
        0.5
        0.5
        0.5
        0.5
        0.5
        0.5
        0.5
        0.5
        0.5
        0.5
        0.5
        0.5
        0.5
        0.5
        0.5
        0.5
        0.5
        0.5
        0.5
        0.5
        0.5
        0.5
        0.5
        0.5
        0.5
        0.5
        0.5
        0.5
        0.5
        0.5
        0.5
        0.5
        0.5
        0.5
        0.5
        0.5
        0.5
        0.5
        0.5
        0.5
        0.5
        0.5
        0.5
      </DataArray>
    </PointData>
    <Points>
      <DataArray type="Float64" NumberOfComponents="3" format="ascii">
        -1.07446 -1.07446 -1.07446
        0.16831 -0.683744 -0.683744
        2.00025 -0.634435 -0.634435
        3.78483 -0.664825 -0.664825
        5.15931 -1.15931 -1.15931
        -0.683744 0.16831 -0.683744
        0.546384 0.546384 -0.243243
        2.00007 0.611854 -0.226825
        3.45342 0.546581 -0.24298
        4.66482 0.215171 -0.664825
        -0.634435 2.00025 -0.634435
        0.611854 2.00007 -0.226825
        2 2 -0.0206815
        3.38818 2 -0.226831
        4.63442 2 -0.63442
        -0.664825 3.78483 -0.664825
        0.546581 3.45342 -0.24298
        2 3.38818 -0.226831
        3.45342 3.45342 -0.24298
        4.66482 3.78483 -0.664825
        -1.15931 5.15931 -1.15931
        0.215171 4.66482 -0.664825
        2 4.63442 -0.63442
        3.78483 4.66482 -0.664825
        5.15931 5.15931 -1.15931
        -0.683744 -0.683744 0.16831
        0.546384 -0.243243 0.546384
        2.00007 -0.226825 0.611854
        3.45342 -0.24298 0.546581
        4.66482 -0.664825 0.215171
        -0.243243 0.546384 0.546384
        0.906657 0.906657 0.906657
        2.00002 0.938278 0.938278
        3.0934 0.9066 0.9066
        4.24298 0.546581 0.546581
        -0.226825 2.00007 0.611854
        0.938278 2.00002 0.938278
        2 2 0.984971
        3.06172 2 0.938276
        4.22683 2 0.611824
        -0.24298 3.45342 0.546581
        0.9066 3.0934 0.9066
        2 3.06172 0.938276
        3.0934 3.0934 0.9066
        4.24298 3.45342 0.546581
        -0.664825 4.66482 0.215171
        0.546581 4.24298 0.546581
        2 4.22683 0.611824
        3.45342 4.24298 0.546581
        4.66482 4.66482 0.215171
        -0.634435 -0.634435 2.00025
        0.611854 -0.226825 2.00007
        2 -0.0206815 2
        3.38818 -0.226831 2
        4.63442 -0.63442 2
        -0.226825 0.611854 2.00007
        0.938278 0.938278 2.00002
        2 0.984971 2
        3.06172 0.938276 2
        4.22683 0.611824 2
        -0.0206815 2 2
        0.984971 2 2
        2 2 2
        3.01503 2 2
        4.02068 2 2
        -0.226831 3.38818 2
        0.938276 3.06172 2
        2 3.01503 2
        3.06172 3.06172 2
        4.22683 3.38818 2
        -0.63442 4.63442 2
        0.611824 4.22683 2
        2 4.02068 2
        3.38818 4.22683 2
        4.63442 4.63442 2
        -0.664825 -0.664825 3.78483
        0.546581 -0.24298 3.45342
        2 -0.226831 3.38818
        3.45342 -0.24298 3.45342
        4.66482 -0.664825 3.78483
        -0.24298 0.546581 3.45342
        0.9066 0.9066 3.0934
        2 0.938276 3.06172
        3.0934 0.9066 3.0934
        4.24298 0.546581 3.45342
        -0.226831 2 3.38818
        0.938276 2 3.06172
        2 2 3.01503
        3.06172 2 3.06172
        4.22683 2 3.38818
        -0.24298 3.45342 3.45342
        0.9066 3.0934 3.0934
        2 3.06172 3.06172
        3.0934 3.0934 3.0934
        4.24298 3.45342 3.45342
        -0.664825 4.66482 3.78483
        0.546581 4.24298 3.45342
        2 4.22683 3.38818
        3.45342 4.24298 3.45342
        4.66482 4.66482 3.78483
        -1.15931 -1.15931 5.15931
        0.215171 -0.664825 4.66482
        2 -0.63442 4.63442
        3.78483 -0.664825 4.66482
        5.15931 -1.15931 5.15931
        -0.664825 0.215171 4.66482
        0.546581 0.546581 4.24298
        2 0.611824 4.22683
        3.45342 0.546581 4.24298
        4.66482 0.215171 4.66482
        -0.63442 2 4.63442
        0.611824 2 4.22683
        2 2 4.02068
        3.38818 2 4.22683
        4.63442 2 4.63442
        -0.664825 3.78483 4.66482
        0.546581 3.45342 4.24298
        2 3.38818 4.22683
        3.45342 3.45342 4.24298
        4.66482 3.78483 4.66482
        -1.15931 5.15931 5.15931
        0.215171 4.66482 4.66482
        2 4.63442 4.63442
        3.78483 4.66482 4.66482
        5.15931 5.15931 5.15931
      </DataArray>
    </Points>
    <Cells>
      <DataArray type="Int32" Name="connectivity" format="ascii"/>
      <DataArray type="Int32" Name="offsets" format="ascii"/>
      <DataArray type="UInt8" Name="types" format="ascii"/>
    </Cells>
  </Piece>
  </UnstructuredGrid>
</VTKFile>
