<VTKFile type="UnstructuredGrid" version="0.1">
  <UnstructuredGrid>
  <Piece NumberOfPoints="125" NumberOfCells="0">
    <PointData Scalars="Radius">
      <DataArray type="Float64" Name="Radius" format="ascii">
        0.5
        0.5
        0.5
        0.5
        0.5
        0.5
        0.5
        0.5
        0.5
        0.5
        0.5
        0.5
        0.5
        0.5
        0.5
        0.5
        0.5
        0.5
        0.5
        0.5
        0.5
        0.5
        0.5
        0.5
        0.5
        0.5
        0.5
        0.5
        0.5
        0.5
        0.5
        0.5
        0.5
        0.5
        0.5
        0.5
        0.5
        0.5
        0.5
        0.5
        0.5
        0.5
        0.5
        0.5
        0.5
        0.5
        0.5
        0.5
        0.5
        0.5
        0.5
        0.5
        0.5
        0.5
        0.5
        0.5
        0.5
        0.5
        0.5
        0.5
        0.5
        0.5
        0.5
        0.5
        0.5
        0.5
        0.5
        0.5
        0.5
        0.5
        0.5
        0.5
        0.5
        0.5
        0.5
        0.5
        0.5
        0.5
        0.5
        0.5
        0.5
        0.5
        0.5
        0.5
        0.5
        0.5
        0.5
        0.5
        0.5
        0.5
        0.5
        0.5
        0.5
        0.5
        0.5
        0.5
        0.5
        0.5
        0.5
        0.5
        0.5
        0.5
        0.5
        0.5
        0.5
        0.5
        0.5
        0.5
        0.5
        0.5
        0.5
        0.5
        0.5
        0.5
        0.5
        0.5
        0.5
        0.5
        0.5
        0.5
        0.5
        0.5
        0.5
        0.5
        0.5
      </DataArray>
    </PointData>
    <Points>
      <DataArray type="Float64" NumberOfComponents="3" format="ascii">
        -0.346975 -0.346975 -0.346975
        0.797234 -0.315261 -0.315261
        2 -0.313748 -0.313748
        3.20277 -0.315261 -0.315261
        4.34697 -0.346975 -0.346975
        -0.315261 0.797234 -0.315261
        0.814192 0.814192 -0.277782
        2 0.81498 -0.276255
        3.18581 0.814192 -0.277782
        4.31526 0.797234 -0.315261
        -0.313748 2 -0.313748
        0.81498 2 -0.276255
        2 2 -0.274814
        3.18502 2 -0.276255
        4.31375 2 -0.313748
        -0.315261 3.20277 -0.315261
        0.814192 3.18581 -0.277782
        2 3.18502 -0.276255
        3.18581 3.18581 -0.277782
        4.31526 3.20277 -0.315261
        -0.346975 4.34697 -0.346975
        0.797234 4.31526 -0.315261
        2 4.31375 -0.313748
        3.20277 4.31526 -0.315261
        4.34697 4.34697 -0.346975
        -0.315261 -0.315261 0.797234
        0.814192 -0.277782 0.814192
        2 -0.276255 0.81498
        3.18581 -0.277782 0.814192
        4.31526 -0.315261 0.797234
        -0.277782 0.814192 0.814192
        0.836588 0.836588 0.836588
        2 0.837561 0.837561
        3.16341 0.836588 0.836588
        4.27778 0.814192 0.814192
        -0.276255 2 0.81498
        0.837561 2 0.837561
        2 2 0.838523
        3.16244 2 0.837561
        4.27626 2 0.81498
        -0.277782 3.18581 0.814192
        0.836588 3.16341 0.836588
        2 3.16244 0.837561
        3.16341 3.16341 0.836588
        4.27778 3.18581 0.814192
        -0.315261 4.31526 0.797234
        0.814192 4.27778 0.814192
        2 4.27626 0.81498
        3.18581 4.27778 0.814192
        4.31526 4.31526 0.797234
        -0.313748 -0.313748 2
        0.81498 -0.276255 2
        2 -0.274814 2
        3.18502 -0.276255 2
        4.31375 -0.313748 2
        -0.276255 0.81498 2
        0.837561 0.837561 2
        2 0.838523 2
        3.16244 0.837561 2
        4.27626 0.81498 2
        -0.274814 2 2
        0.838523 2 2
        2 2 2
        3.16148 2 2
        4.27481 2 2
        -0.276255 3.18502 2
        0.837561 3.16244 2
        2 3.16148 2
        3.16244 3.16244 2
        4.27626 3.18502 2
        -0.313748 4.31375 2
        0.81498 4.27626 2
        2 4.27481 2
        3.18502 4.27626 2
        4.31375 4.31375 2
        -0.315261 -0.315261 3.20277
        0.814192 -0.277782 3.18581
        2 -0.276255 3.18502
        3.18581 -0.277782 3.18581
        4.31526 -0.315261 3.20277
        -0.277782 0.814192 3.18581
        0.836588 0.836588 3.16341
        2 0.837561 3.16244
        3.16341 0.836588 3.16341
        4.27778 0.814192 3.18581
        -0.276255 2 3.18502
        0.837561 2 3.16244
        2 2 3.16148
        3.16244 2 3.16244
        4.27626 2 3.18502
        -0.277782 3.18581 3.18581
        0.836588 3.16341 3.16341
        2 3.16244 3.16244
        3.16341 3.16341 3.16341
        4.27778 3.18581 3.18581
        -0.315261 4.31526 3.20277
        0.814192 4.27778 3.18581
        2 4.27626 3.18502
        3.18581 4.27778 3.18581
        4.31526 4.31526 3.20277
        -0.346975 -0.346975 4.34697
        0.797234 -0.315261 4.31526
        2 -0.313748 4.31375
        3.20277 -0.315261 4.31526
        4.34697 -0.346975 4.34697
        -0.315261 0.797234 4.31526
        0.814192 0.814192 4.27778
        2 0.81498 4.27626
        3.18581 0.814192 4.27778
        4.31526 0.797234 4.31526
        -0.313748 2 4.31375
        0.81498 2 4.27626
        2 2 4.27481
        3.18502 2 4.27626
        4.31375 2 4.31375
        -0.315261 3.20277 4.31526
        0.814192 3.18581 4.27778
        2 3.18502 4.27626
        3.18581 3.18581 4.27778
        4.31526 3.20277 4.31526
        -0.346975 4.34697 4.34697
        0.797234 4.31526 4.31526
        2 4.31375 4.31375
        3.20277 4.31526 4.31526
        4.34697 4.34697 4.34697
      </DataArray>
    </Points>
    <Cells>
      <DataArray type="Int32" Name="connectivity" format="ascii"/>
      <DataArray type="Int32" Name="offsets" format="ascii"/>
      <DataArray type="UInt8" Name="types" format="ascii"/>
    </Cells>
  </Piece>
  </UnstructuredGrid>
</VTKFile>
