<VTKFile type="UnstructuredGrid" version="0.1">
  <UnstructuredGrid>
  <Piece NumberOfPoints="125" NumberOfCells="0">
    <PointData Scalars="Radius">
      <DataArray type="Float64" Name="Radius" format="ascii">
        0.5
        0.5
        0.5
        0.5
        0.5
        0.5
        0.5
        0.5
        0.5
        0.5
        0.5
        0.5
        0.5
        0.5
        0.5
        0.5
        0.5
        0.5
        0.5
        0.5
        0.5
        0.5
        0.5
        0.5
        0.5
        0.5
        0.5
        0.5
        0.5
        0.5
        0.5
        0.5
        0.5
        0.5
        0.5
        0.5
        0.5
        0.5
        0.5
        0.5
        0.5
        0.5
        0.5
        0.5
        0.5
        0.5
        0.5
        0.5
        0.5
        0.5
        0.5
        0.5
        0.5
        0.5
        0.5
        0.5
        0.5
        0.5
        0.5
        0.5
        0.5
        0.5
        0.5
        0.5
        0.5
        0.5
        0.5
        0.5
        0.5
        0.5
        0.5
        0.5
        0.5
        0.5
        0.5
        0.5
        0.5
        0.5
        0.5
        0.5
        0.5
        0.5
        0.5
        0.5
        0.5
        0.5
        0.5
        0.5
        0.5
        0.5
        0.5
        0.5
        0.5
        0.5
        0.5
        0.5
        0.5
        0.5
        0.5
        0.5
        0.5
        0.5
        0.5
        0.5
        0.5
        0.5
        0.5
        0.5
        0.5
        0.5
        0.5
        0.5
        0.5
        0.5
        0.5
        0.5
        0.5
        0.5
        0.5
        0.5
        0.5
        0.5
        0.5
        0.5
        0.5
      </DataArray>
    </PointData>
    <Points>
      <DataArray type="Float64" NumberOfComponents="3" format="ascii">
        -0.542071 -0.542071 -0.542071
        0.624347 -0.481407 -0.481407
        2 -0.483295 -0.483295
        3.37565 -0.481407 -0.481407
        4.54207 -0.542071 -0.542071
        -0.481407 0.624347 -0.481407
        0.674263 0.674263 -0.408212
        2 0.676702 -0.410491
        3.32574 0.674263 -0.408212
        4.48141 0.624347 -0.481407
        -0.483295 2 -0.483295
        0.676702 2 -0.410491
        2 2 -0.412661
        3.3233 2 -0.410491
        4.4833 2 -0.483295
        -0.481407 3.37565 -0.481407
        0.674263 3.32574 -0.408212
        2 3.3233 -0.410491
        3.32574 3.32574 -0.408212
        4.48141 3.37565 -0.481407
        -0.542071 4.54207 -0.542071
        0.624347 4.48141 -0.481407
        2 4.4833 -0.483295
        3.37565 4.48141 -0.481407
        4.54207 4.54207 -0.542071
        -0.481407 -0.481407 0.624347
        0.674263 -0.408212 0.674263
        2 -0.410491 0.676702
        3.32574 -0.408212 0.674263
        4.48141 -0.481407 0.624347
        -0.408212 0.674263 0.674263
        0.740921 0.740921 0.740921
        2 0.743295 0.743295
        3.25908 0.740921 0.740921
        4.40821 0.674263 0.674263
        -0.410491 2 0.676702
        0.743295 2 0.743295
        2 2 0.745627
        3.25671 2 0.743295
        4.41049 2 0.676702
        -0.408212 3.32574 0.674263
        0.740921 3.25908 0.740921
        2 3.25671 0.743295
        3.25908 3.25908 0.740921
        4.40821 3.32574 0.674263
        -0.481407 4.48141 0.624347
        0.674263 4.40821 0.674263
        2 4.41049 0.676702
        3.32574 4.40821 0.674263
        4.48141 4.48141 0.624347
        -0.483295 -0.483295 2
        0.676702 -0.410491 2
        2 -0.412661 2
        3.3233 -0.410491 2
        4.4833 -0.483295 2
        -0.410491 0.676702 2
        0.743295 0.743295 2
        2 0.745627 2
        3.25671 0.743295 2
        4.41049 0.676702 2
        -0.412661 2 2
        0.745627 2 2
        2 2 2
        3.25437 2 2
        4.41266 2 2
        -0.410491 3.3233 2
        0.743295 3.25671 2
        2 3.25437 2
        3.25671 3.25671 2
        4.41049 3.3233 2
        -0.483295 4.4833 2
        0.676702 4.41049 2
        2 4.41266 2
        3.3233 4.41049 2
        4.4833 4.4833 2
        -0.481407 -0.481407 3.37565
        0.674263 -0.408212 3.32574
        2 -0.410491 3.3233
        3.32574 -0.408212 3.32574
        4.48141 -0.481407 3.37565
        -0.408212 0.674263 3.32574
        0.740921 0.740921 3.25908
        2 0.743295 3.25671
        3.25908 0.740921 3.25908
        4.40821 0.674263 3.32574
        -0.410491 2 3.3233
        0.743295 2 3.25671
        2 2 3.25437
        3.25671 2 3.25671
        4.41049 2 3.3233
        -0.408212 3.32574 3.32574
        0.740921 3.25908 3.25908
        2 3.25671 3.25671
        3.25908 3.25908 3.25908
        4.40821 3.32574 3.32574
        -0.481407 4.48141 3.37565
        0.674263 4.40821 3.32574
        2 4.41049 3.3233
        3.32574 4.40821 3.32574
        4.48141 4.48141 3.37565
        -0.542071 -0.542071 4.54207
        0.624347 -0.481407 4.48141
        2 -0.483295 4.4833
        3.37565 -0.481407 4.48141
        4.54207 -0.542071 4.54207
        -0.481407 0.624347 4.48141
        0.674263 0.674263 4.40821
        2 0.676702 4.41049
        3.32574 0.674263 4.40821
        4.48141 0.624347 4.48141
        -0.483295 2 4.4833
        0.676702 2 4.41049
        2 2 4.41266
        3.3233 2 4.41049
        4.4833 2 4.4833
        -0.481407 3.37565 4.48141
        0.674263 3.32574 4.40821
        2 3.3233 4.41049
        3.32574 3.32574 4.40821
        4.48141 3.37565 4.48141
        -0.542071 4.54207 4.54207
        0.624347 4.48141 4.48141
        2 4.4833 4.4833
        3.37565 4.48141 4.48141
        4.54207 4.54207 4.54207
      </DataArray>
    </Points>
    <Cells>
      <DataArray type="Int32" Name="connectivity" format="ascii"/>
      <DataArray type="Int32" Name="offsets" format="ascii"/>
      <DataArray type="UInt8" Name="types" format="ascii"/>
    </Cells>
  </Piece>
  </UnstructuredGrid>
</VTKFile>
