<VTKFile type="UnstructuredGrid" version="0.1">
  <UnstructuredGrid>
  <Piece NumberOfPoints="125" NumberOfCells="0">
    <PointData Scalars="Radius">
      <DataArray type="Float64" Name="Radius" format="ascii">
        0.5
        0.5
        0.5
        0.5
        0.5
        0.5
        0.5
        0.5
        0.5
        0.5
        0.5
        0.5
        0.5
        0.5
        0.5
        0.5
        0.5
        0.5
        0.5
        0.5
        0.5
        0.5
        0.5
        0.5
        0.5
        0.5
        0.5
        0.5
        0.5
        0.5
        0.5
        0.5
        0.5
        0.5
        0.5
        0.5
        0.5
        0.5
        0.5
        0.5
        0.5
        0.5
        0.5
        0.5
        0.5
        0.5
        0.5
        0.5
        0.5
        0.5
        0.5
        0.5
        0.5
        0.5
        0.5
        0.5
        0.5
        0.5
        0.5
        0.5
        0.5
        0.5
        0.5
        0.5
        0.5
        0.5
        0.5
        0.5
        0.5
        0.5
        0.5
        0.5
        0.5
        0.5
        0.5
        0.5
        0.5
        0.5
        0.5
        0.5
        0.5
        0.5
        0.5
        0.5
        0.5
        0.5
        0.5
        0.5
        0.5
        0.5
        0.5
        0.5
        0.5
        0.5
        0.5
        0.5
        0.5
        0.5
        0.5
        0.5
        0.5
        0.5
        0.5
        0.5
        0.5
        0.5
        0.5
        0.5
        0.5
        0.5
        0.5
        0.5
        0.5
        0.5
        0.5
        0.5
        0.5
        0.5
        0.5
        0.5
        0.5
        0.5
        0.5
        0.5
        0.5
      </DataArray>
    </PointData>
    <Points>
      <DataArray type="Float64" NumberOfComponents="3" format="ascii">
        -0.788603 -0.788603 -0.788603
        0.271848 -0.581546 -0.581546
        2 -0.616267 -0.616267
        3.72815 -0.581546 -0.581546
        4.7886 -0.788603 -0.788603
        -0.581546 0.271848 -0.581546
        0.46396 0.46396 -0.316903
        2 0.455424 -0.363763
        3.53604 0.46396 -0.316903
        4.58155 0.271848 -0.581546
        -0.616267 2 -0.616267
        0.455424 2 -0.363763
        2 2 -0.398533
        3.54458 2 -0.363763
        4.61627 2 -0.616267
        -0.581546 3.72815 -0.581546
        0.46396 3.53604 -0.316903
        2 3.54458 -0.363763
        3.53604 3.53604 -0.316903
        4.58155 3.72815 -0.581546
        -0.788603 4.7886 -0.788603
        0.271848 4.58155 -0.581546
        2 4.61627 -0.616267
        3.72815 4.58155 -0.581546
        4.7886 4.7886 -0.788603
        -0.581546 -0.581546 0.271848
        0.46396 -0.316903 0.46396
        2 -0.363763 0.455424
        3.53604 -0.316903 0.46396
        4.58155 -0.581546 0.271848
        -0.316903 0.46396 0.46396
        0.718692 0.718692 0.718692
        2 0.70727 0.70727
        3.28131 0.718692 0.718692
        4.3169 0.46396 0.46396
        -0.363763 2 0.455424
        0.70727 2 0.70727
        2 2 0.706735
        3.29273 2 0.70727
        4.36376 2 0.455424
        -0.316903 3.53604 0.46396
        0.718692 3.28131 0.718692
        2 3.29273 0.70727
        3.28131 3.28131 0.718692
        4.3169 3.53604 0.46396
        -0.581546 4.58155 0.271848
        0.46396 4.3169 0.46396
        2 4.36376 0.455424
        3.53604 4.3169 0.46396
        4.58155 4.58155 0.271848
        -0.616267 -0.616267 2
        0.455424 -0.363763 2
        2 -0.398533 2
        3.54458 -0.363763 2
        4.61627 -0.616267 2
        -0.363763 0.455424 2
        0.70727 0.70727 2
        2 0.706735 2
        3.29273 0.70727 2
        4.36376 0.455424 2
        -0.398533 2 2
        0.706735 2 2
        2 2 2
        3.29327 2 2
        4.39853 2 2
        -0.363763 3.54458 2
        0.70727 3.29273 2
        2 3.29327 2
        3.29273 3.29273 2
        4.36376 3.54458 2
        -0.616267 4.61627 2
        0.455424 4.36376 2
        2 4.39853 2
        3.54458 4.36376 2
        4.61627 4.61627 2
        -0.581546 -0.581546 3.72815
        0.46396 -0.316903 3.53604
        2 -0.363763 3.54458
        3.53604 -0.316903 3.53604
        4.58155 -0.581546 3.72815
        -0.316903 0.46396 3.53604
        0.718692 0.718692 3.28131
        2 0.70727 3.29273
        3.28131 0.718692 3.28131
        4.3169 0.46396 3.53604
        -0.363763 2 3.54458
        0.70727 2 3.29273
        2 2 3.29327
        3.29273 2 3.29273
        4.36376 2 3.54458
        -0.316903 3.53604 3.53604
        0.718692 3.28131 3.28131
        2 3.29273 3.29273
        3.28131 3.28131 3.28131
        4.3169 3.53604 3.53604
        -0.581546 4.58155 3.72815
        0.46396 4.3169 3.53604
        2 4.36376 3.54458
        3.53604 4.3169 3.53604
        4.58155 4.58155 3.72815
        -0.788603 -0.788603 4.7886
        0.271848 -0.581546 4.58155
        2 -0.616267 4.61627
        3.72815 -0.581546 4.58155
        4.7886 -0.788603 4.7886
        -0.581546 0.271848 4.58155
        0.46396 0.46396 4.3169
        2 0.455424 4.36376
        3.53604 0.46396 4.3169
        4.58155 0.271848 4.58155
        -0.616267 2 4.61627
        0.455424 2 4.36376
        2 2 4.39853
        3.54458 2 4.36376
        4.61627 2 4.61627
        -0.581546 3.72815 4.58155
        0.46396 3.53604 4.3169
        2 3.54458 4.36376
        3.53604 3.53604 4.3169
        4.58155 3.72815 4.58155
        -0.788603 4.7886 4.7886
        0.271848 4.58155 4.58155
        2 4.61627 4.61627
        3.72815 4.58155 4.58155
        4.7886 4.7886 4.7886
      </DataArray>
    </Points>
    <Cells>
      <DataArray type="Int32" Name="connectivity" format="ascii"/>
      <DataArray type="Int32" Name="offsets" format="ascii"/>
      <DataArray type="UInt8" Name="types" format="ascii"/>
    </Cells>
  </Piece>
  </UnstructuredGrid>
</VTKFile>
