<VTKFile type="UnstructuredGrid" version="0.1">
  <UnstructuredGrid>
  <Piece NumberOfPoints="125" NumberOfCells="0">
    <PointData Scalars="Radius">
      <DataArray type="Float64" Name="Radius" format="ascii">
        0.5
        0.5
        0.5
        0.5
        0.5
        0.5
        0.5
        0.5
        0.5
        0.5
        0.5
        0.5
        0.5
        0.5
        0.5
        0.5
        0.5
        0.5
        0.5
        0.5
        0.5
        0.5
        0.5
        0.5
        0.5
        0.5
        0.5
        0.5
        0.5
        0.5
        0.5
        0.5
        0.5
        0.5
        0.5
        0.5
        0.5
        0.5
        0.5
        0.5
        0.5
        0.5
        0.5
        0.5
        0.5
        0.5
        0.5
        0.5
        0.5
        0.5
        0.5
        0.5
        0.5
        0.5
        0.5
        0.5
        0.5
        0.5
        0.5
        0.5
        0.5
        0.5
        0.5
        0.5
        0.5
        0.5
        0.5
        0.5
        0.5
        0.5
        0.5
        0.5
        0.5
        0.5
        0.5
        0.5
        0.5
        0.5
        0.5
        0.5
        0.5
        0.5
        0.5
        0.5
        0.5
        0.5
        0.5
        0.5
        0.5
        0.5
        0.5
        0.5
        0.5
        0.5
        0.5
        0.5
        0.5
        0.5
        0.5
        0.5
        0.5
        0.5
        0.5
        0.5
        0.5
        0.5
        0.5
        0.5
        0.5
        0.5
        0.5
        0.5
        0.5
        0.5
        0.5
        0.5
        0.5
        0.5
        0.5
        0.5
        0.5
        0.5
        0.5
        0.5
        0.5
      </DataArray>
    </PointData>
    <Points>
      <DataArray type="Float64" NumberOfComponents="3" format="ascii">
        -0.319549 -0.319549 -0.319549
        0.81753 -0.290833 -0.290833
        2 -0.289266 -0.289266
        3.18247 -0.290833 -0.290833
        4.31955 -0.319549 -0.319549
        -0.290833 0.81753 -0.290833
        0.832019 0.832019 -0.256842
        2 0.832691 -0.255211
        3.16798 0.832019 -0.256842
        4.29083 0.81753 -0.290833
        -0.289266 2 -0.289266
        0.832691 2 -0.255211
        2 2 -0.253648
        3.16731 2 -0.255211
        4.28927 2 -0.289266
        -0.290833 3.18247 -0.290833
        0.832019 3.16798 -0.256842
        2 3.16731 -0.255211
        3.16798 3.16798 -0.256842
        4.29083 3.18247 -0.290833
        -0.319549 4.31955 -0.319549
        0.81753 4.29083 -0.290833
        2 4.28927 -0.289266
        3.18247 4.29083 -0.290833
        4.31955 4.31955 -0.319549
        -0.290833 -0.290833 0.81753
        0.832019 -0.256842 0.832019
        2 -0.255211 0.832691
        3.16798 -0.256842 0.832019
        4.29083 -0.290833 0.81753
        -0.256842 0.832019 0.832019
        0.851025 0.851025 0.851025
        2 0.851863 0.851863
        3.14898 0.851025 0.851025
        4.25684 0.832019 0.832019
        -0.255211 2 0.832691
        0.851863 2 0.851863
        2 2 0.8527
        3.14814 2 0.851863
        4.25521 2 0.832691
        -0.256842 3.16798 0.832019
        0.851025 3.14898 0.851025
        2 3.14814 0.851863
        3.14898 3.14898 0.851025
        4.25684 3.16798 0.832019
        -0.290833 4.29083 0.81753
        0.832019 4.25684 0.832019
        2 4.25521 0.832691
        3.16798 4.25684 0.832019
        4.29083 4.29083 0.81753
        -0.289266 -0.289266 2
        0.832691 -0.255211 2
        2 -0.253648 2
        3.16731 -0.255211 2
        4.28927 -0.289266 2
        -0.255211 0.832691 2
        0.851863 0.851863 2
        2 0.8527 2
        3.14814 0.851863 2
        4.25521 0.832691 2
        -0.253648 2 2
        0.8527 2 2
        2 2 2
        3.1473 2 2
        4.25365 2 2
        -0.255211 3.16731 2
        0.851863 3.14814 2
        2 3.1473 2
        3.14814 3.14814 2
        4.25521 3.16731 2
        -0.289266 4.28927 2
        0.832691 4.25521 2
        2 4.25365 2
        3.16731 4.25521 2
        4.28927 4.28927 2
        -0.290833 -0.290833 3.18247
        0.832019 -0.256842 3.16798
        2 -0.255211 3.16731
        3.16798 -0.256842 3.16798
        4.29083 -0.290833 3.18247
        -0.256842 0.832019 3.16798
        0.851025 0.851025 3.14898
        2 0.851863 3.14814
        3.14898 0.851025 3.14898
        4.25684 0.832019 3.16798
        -0.255211 2 3.16731
        0.851863 2 3.14814
        2 2 3.1473
        3.14814 2 3.14814
        4.25521 2 3.16731
        -0.256842 3.16798 3.16798
        0.851025 3.14898 3.14898
        2 3.14814 3.14814
        3.14898 3.14898 3.14898
        4.25684 3.16798 3.16798
        -0.290833 4.29083 3.18247
        0.832019 4.25684 3.16798
        2 4.25521 3.16731
        3.16798 4.25684 3.16798
        4.29083 4.29083 3.18247
        -0.319549 -0.319549 4.31955
        0.81753 -0.290833 4.29083
        2 -0.289266 4.28927
        3.18247 -0.290833 4.29083
        4.31955 -0.319549 4.31955
        -0.290833 0.81753 4.29083
        0.832019 0.832019 4.25684
        2 0.832691 4.25521
        3.16798 0.832019 4.25684
        4.29083 0.81753 4.29083
        -0.289266 2 4.28927
        0.832691 2 4.25521
        2 2 4.25365
        3.16731 2 4.25521
        4.28927 2 4.28927
        -0.290833 3.18247 4.29083
        0.832019 3.16798 4.25684
        2 3.16731 4.25521
        3.16798 3.16798 4.25684
        4.29083 3.18247 4.29083
        -0.319549 4.31955 4.31955
        0.81753 4.29083 4.29083
        2 4.28927 4.28927
        3.18247 4.29083 4.29083
        4.31955 4.31955 4.31955
      </DataArray>
    </Points>
    <Cells>
      <DataArray type="Int32" Name="connectivity" format="ascii"/>
      <DataArray type="Int32" Name="offsets" format="ascii"/>
      <DataArray type="UInt8" Name="types" format="ascii"/>
    </Cells>
  </Piece>
  </UnstructuredGrid>
</VTKFile>
