<VTKFile type="UnstructuredGrid" version="0.1">
  <UnstructuredGrid>
  <Piece NumberOfPoints="125" NumberOfCells="0">
    <PointData Scalars="Radius">
      <DataArray type="Float64" Name="Radius" format="ascii">
        0.5
        0.5
        0.5
        0.5
        0.5
        0.5
        0.5
        0.5
        0.5
        0.5
        0.5
        0.5
        0.5
        0.5
        0.5
        0.5
        0.5
        0.5
        0.5
        0.5
        0.5
        0.5
        0.5
        0.5
        0.5
        0.5
        0.5
        0.5
        0.5
        0.5
        0.5
        0.5
        0.5
        0.5
        0.5
        0.5
        0.5
        0.5
        0.5
        0.5
        0.5
        0.5
        0.5
        0.5
        0.5
        0.5
        0.5
        0.5
        0.5
        0.5
        0.5
        0.5
        0.5
        0.5
        0.5
        0.5
        0.5
        0.5
        0.5
        0.5
        0.5
        0.5
        0.5
        0.5
        0.5
        0.5
        0.5
        0.5
        0.5
        0.5
        0.5
        0.5
        0.5
        0.5
        0.5
        0.5
        0.5
        0.5
        0.5
        0.5
        0.5
        0.5
        0.5
        0.5
        0.5
        0.5
        0.5
        0.5
        0.5
        0.5
        0.5
        0.5
        0.5
        0.5
        0.5
        0.5
        0.5
        0.5
        0.5
        0.5
        0.5
        0.5
        0.5
        0.5
        0.5
        0.5
        0.5
        0.5
        0.5
        0.5
        0.5
        0.5
        0.5
        0.5
        0.5
        0.5
        0.5
        0.5
        0.5
        0.5
        0.5
        0.5
        0.5
        0.5
        0.5
      </DataArray>
    </PointData>
    <Points>
      <DataArray type="Float64" NumberOfComponents="3" format="ascii">
        -0.580857 -0.580857 -0.580857
        0.57157 -0.510268 -0.510268
        2 -0.514255 -0.514255
        3.42843 -0.510268 -0.510268
        4.58086 -0.580857 -0.580857
        -0.510268 0.57157 -0.510268
        0.6354 0.6354 -0.423554
        2 0.638713 -0.427943
        3.3646 0.6354 -0.423554
        4.51027 0.57157 -0.510268
        -0.514255 2 -0.514255
        0.638713 2 -0.427943
        2 2 -0.431879
        3.36129 2 -0.427943
        4.51425 2 -0.514255
        -0.510268 3.42843 -0.510268
        0.6354 3.3646 -0.423554
        2 3.36129 -0.427943
        3.3646 3.3646 -0.423554
        4.51027 3.42843 -0.510268
        -0.580857 4.58086 -0.580857
        0.57157 4.51027 -0.510268
        2 4.51425 -0.514255
        3.42843 4.51027 -0.510268
        4.58086 4.58086 -0.580857
        -0.510268 -0.510268 0.57157
        0.6354 -0.423554 0.6354
        2 -0.427943 0.638713
        3.3646 -0.423554 0.6354
        4.51027 -0.510268 0.57157
        -0.423554 0.6354 0.6354
        0.720241 0.720241 0.720241
        2 0.723249 0.723249
        3.27976 0.720241 0.720241
        4.42355 0.6354 0.6354
        -0.427943 2 0.638713
        0.723249 2 0.723249
        2 2 0.726295
        3.27675 2 0.723249
        4.42794 2 0.638713
        -0.423554 3.3646 0.6354
        0.720241 3.27976 0.720241
        2 3.27675 0.723249
        3.27976 3.27976 0.720241
        4.42355 3.3646 0.6354
        -0.510268 4.51027 0.57157
        0.6354 4.42355 0.6354
        2 4.42794 0.638713
        3.3646 4.42355 0.6354
        4.51027 4.51027 0.57157
        -0.514255 -0.514255 2
        0.638713 -0.427943 2
        2 -0.431879 2
        3.36129 -0.427943 2
        4.51425 -0.514255 2
        -0.427943 0.638713 2
        0.723249 0.723249 2
        2 0.726295 2
        3.27675 0.723249 2
        4.42794 0.638713 2
        -0.431879 2 2
        0.726295 2 2
        2 2 2
        3.27371 2 2
        4.43188 2 2
        -0.427943 3.36129 2
        0.723249 3.27675 2
        2 3.27371 2
        3.27675 3.27675 2
        4.42794 3.36129 2
        -0.514255 4.51425 2
        0.638713 4.42794 2
        2 4.43188 2
        3.36129 4.42794 2
        4.51425 4.51425 2
        -0.510268 -0.510268 3.42843
        0.6354 -0.423554 3.3646
        2 -0.427943 3.36129
        3.3646 -0.423554 3.3646
        4.51027 -0.510268 3.42843
        -0.423554 0.6354 3.3646
        0.720241 0.720241 3.27976
        2 0.723249 3.27675
        3.27976 0.720241 3.27976
        4.42355 0.6354 3.3646
        -0.427943 2 3.36129
        0.723249 2 3.27675
        2 2 3.27371
        3.27675 2 3.27675
        4.42794 2 3.36129
        -0.423554 3.3646 3.3646
        0.720241 3.27976 3.27976
        2 3.27675 3.27675
        3.27976 3.27976 3.27976
        4.42355 3.3646 3.3646
        -0.510268 4.51027 3.42843
        0.6354 4.42355 3.3646
        2 4.42794 3.36129
        3.3646 4.42355 3.3646
        4.51027 4.51027 3.42843
        -0.580857 -0.580857 4.58086
        0.57157 -0.510268 4.51027
        2 -0.514255 4.51425
        3.42843 -0.510268 4.51027
        4.58086 -0.580857 4.58086
        -0.510268 0.57157 4.51027
        0.6354 0.6354 4.42355
        2 0.638713 4.42794
        3.3646 0.6354 4.42355
        4.51027 0.57157 4.51027
        -0.514255 2 4.51425
        0.638713 2 4.42794
        2 2 4.43188
        3.36129 2 4.42794
        4.51425 2 4.51425
        -0.510268 3.42843 4.51027
        0.6354 3.3646 4.42355
        2 3.36129 4.42794
        3.3646 3.3646 4.42355
        4.51027 3.42843 4.51027
        -0.580857 4.58086 4.58086
        0.57157 4.51027 4.51027
        2 4.51425 4.51425
        3.42843 4.51027 4.51027
        4.58086 4.58086 4.58086
      </DataArray>
    </Points>
    <Cells>
      <DataArray type="Int32" Name="connectivity" format="ascii"/>
      <DataArray type="Int32" Name="offsets" format="ascii"/>
      <DataArray type="UInt8" Name="types" format="ascii"/>
    </Cells>
  </Piece>
  </UnstructuredGrid>
</VTKFile>
