<VTKFile type="UnstructuredGrid" version="0.1">
  <UnstructuredGrid>
  <Piece NumberOfPoints="125" NumberOfCells="0">
    <PointData Scalars="Radius">
      <DataArray type="Float64" Name="Radius" format="ascii">
        0.5
        0.5
        0.5
        0.5
        0.5
        0.5
        0.5
        0.5
        0.5
        0.5
        0.5
        0.5
        0.5
        0.5
        0.5
        0.5
        0.5
        0.5
        0.5
        0.5
        0.5
        0.5
        0.5
        0.5
        0.5
        0.5
        0.5
        0.5
        0.5
        0.5
        0.5
        0.5
        0.5
        0.5
        0.5
        0.5
        0.5
        0.5
        0.5
        0.5
        0.5
        0.5
        0.5
        0.5
        0.5
        0.5
        0.5
        0.5
        0.5
        0.5
        0.5
        0.5
        0.5
        0.5
        0.5
        0.5
        0.5
        0.5
        0.5
        0.5
        0.5
        0.5
        0.5
        0.5
        0.5
        0.5
        0.5
        0.5
        0.5
        0.5
        0.5
        0.5
        0.5
        0.5
        0.5
        0.5
        0.5
        0.5
        0.5
        0.5
        0.5
        0.5
        0.5
        0.5
        0.5
        0.5
        0.5
        0.5
        0.5
        0.5
        0.5
        0.5
        0.5
        0.5
        0.5
        0.5
        0.5
        0.5
        0.5
        0.5
        0.5
        0.5
        0.5
        0.5
        0.5
        0.5
        0.5
        0.5
        0.5
        0.5
        0.5
        0.5
        0.5
        0.5
        0.5
        0.5
        0.5
        0.5
        0.5
        0.5
        0.5
        0.5
        0.5
        0.5
        0.5
      </DataArray>
    </PointData>
    <Points>
      <DataArray type="Float64" NumberOfComponents="3" format="ascii">
        -1.07326 -1.07326 -1.07326
        0.163484 -0.677712 -0.677712
        2.0004 -0.615314 -0.615314
        3.77765 -0.653486 -0.653486
        5.1798 -1.1798 -1.1798
        -0.677712 0.163484 -0.677712
        0.546838 0.546838 -0.224419
        2.0001 0.627626 -0.201171
        3.45324 0.546757 -0.22423
        4.65349 0.222347 -0.653486
        -0.615314 2.0004 -0.615314
        0.627626 2.0001 -0.201171
        2 2 0.00453086
        3.37242 2 -0.201182
        4.61529 2 -0.615292
        -0.653486 3.77765 -0.653486
        0.546757 3.45324 -0.22423
        2 3.37242 -0.201182
        3.45324 3.45324 -0.22423
        4.65349 3.77765 -0.653486
        -1.1798 5.1798 -1.1798
        0.222347 4.65349 -0.653486
        2 4.61529 -0.615292
        3.77765 4.65349 -0.653486
        5.1798 5.1798 -1.1798
        -0.677712 -0.677712 0.163484
        0.546838 -0.224419 0.546838
        2.0001 -0.201171 0.627626
        3.45324 -0.22423 0.546757
        4.65349 -0.653486 0.222347
        -0.224419 0.546838 0.546838
        0.886101 0.886101 0.886101
        2.00003 0.920737 0.920737
        3.11399 0.886016 0.886016
        4.22423 0.546757 0.546757
        -0.201171 2.0001 0.627626
        0.920737 2.00003 0.920737
        2 2 0.986334
        3.07927 2 0.920734
        4.20118 2 0.627577
        -0.22423 3.45324 0.546757
        0.886016 3.11399 0.886016
        2 3.07927 0.920734
        3.11398 3.11398 0.886017
        4.22423 3.45324 0.546757
        -0.653486 4.65349 0.222347
        0.546757 4.22423 0.546757
        2 4.20118 0.627577
        3.45324 4.22423 0.546757
        4.65349 4.65349 0.222347
        -0.615314 -0.615314 2.0004
        0.627626 -0.201171 2.0001
        2 0.00453086 2
        3.37242 -0.201182 2
        4.61529 -0.615292 2
        -0.201171 0.627626 2.0001
        0.920737 0.920737 2.00003
        2 0.986334 2
        3.07927 0.920734 2
        4.20118 0.627577 2
        0.00453086 2 2
        0.986334 2 2
        2 2 2
        3.01367 2 2
        3.99547 2 2
        -0.201182 3.37242 2
        0.920734 3.07927 2
        2 3.01367 2
        3.07927 3.07927 2
        4.20118 3.37242 2
        -0.615292 4.61529 2
        0.627577 4.20118 2
        2 3.99547 2
        3.37242 4.20118 2
        4.61529 4.61529 2
        -0.653486 -0.653486 3.77765
        0.546757 -0.22423 3.45324
        2 -0.201182 3.37242
        3.45324 -0.22423 3.45324
        4.65349 -0.653486 3.77765
        -0.22423 0.546757 3.45324
        0.886016 0.886016 3.11399
        2 0.920734 3.07927
        3.11398 0.886017 3.11398
        4.22423 0.546757 3.45324
        -0.201182 2 3.37242
        0.920734 2 3.07927
        2 2 3.01367
        3.07927 2 3.07927
        4.20118 2 3.37242
        -0.22423 3.45324 3.45324
        0.886017 3.11398 3.11398
        2 3.07927 3.07927
        3.11398 3.11398 3.11398
        4.22423 3.45324 3.45324
        -0.653486 4.65349 3.77765
        0.546757 4.22423 3.45324
        2 4.20118 3.37242
        3.45324 4.22423 3.45324
        4.65349 4.65349 3.77765
        -1.1798 -1.1798 5.1798
        0.222347 -0.653486 4.65349
        2 -0.615292 4.61529
        3.77765 -0.653486 4.65349
        5.1798 -1.1798 5.1798
        -0.653486 0.222347 4.65349
        0.546757 0.546757 4.22423
        2 0.627577 4.20118
        3.45324 0.546757 4.22423
        4.65349 0.222347 4.65349
        -0.615292 2 4.61529
        0.627577 2 4.20118
        2 2 3.99547
        3.37242 2 4.20118
        4.61529 2 4.61529
        -0.653486 3.77765 4.65349
        0.546757 3.45324 4.22423
        2 3.37242 4.20118
        3.45324 3.45324 4.22423
        4.65349 3.77765 4.65349
        -1.1798 5.1798 5.1798
        0.222347 4.65349 4.65349
        2 4.61529 4.61529
        3.77765 4.65349 4.65349
        5.1798 5.1798 5.1798
      </DataArray>
    </Points>
    <Cells>
      <DataArray type="Int32" Name="connectivity" format="ascii"/>
      <DataArray type="Int32" Name="offsets" format="ascii"/>
      <DataArray type="UInt8" Name="types" format="ascii"/>
    </Cells>
  </Piece>
  </UnstructuredGrid>
</VTKFile>
