<VTKFile type="UnstructuredGrid" version="0.1">
  <UnstructuredGrid>
  <Piece NumberOfPoints="125" NumberOfCells="0">
    <PointData Scalars="Radius">
      <DataArray type="Float64" Name="Radius" format="ascii">
        0.5
        0.5
        0.5
        0.5
        0.5
        0.5
        0.5
        0.5
        0.5
        0.5
        0.5
        0.5
        0.5
        0.5
        0.5
        0.5
        0.5
        0.5
        0.5
        0.5
        0.5
        0.5
        0.5
        0.5
        0.5
        0.5
        0.5
        0.5
        0.5
        0.5
        0.5
        0.5
        0.5
        0.5
        0.5
        0.5
        0.5
        0.5
        0.5
        0.5
        0.5
        0.5
        0.5
        0.5
        0.5
        0.5
        0.5
        0.5
        0.5
        0.5
        0.5
        0.5
        0.5
        0.5
        0.5
        0.5
        0.5
        0.5
        0.5
        0.5
        0.5
        0.5
        0.5
        0.5
        0.5
        0.5
        0.5
        0.5
        0.5
        0.5
        0.5
        0.5
        0.5
        0.5
        0.5
        0.5
        0.5
        0.5
        0.5
        0.5
        0.5
        0.5
        0.5
        0.5
        0.5
        0.5
        0.5
        0.5
        0.5
        0.5
        0.5
        0.5
        0.5
        0.5
        0.5
        0.5
        0.5
        0.5
        0.5
        0.5
        0.5
        0.5
        0.5
        0.5
        0.5
        0.5
        0.5
        0.5
        0.5
        0.5
        0.5
        0.5
        0.5
        0.5
        0.5
        0.5
        0.5
        0.5
        0.5
        0.5
        0.5
        0.5
        0.5
        0.5
        0.5
      </DataArray>
    </PointData>
    <Points>
      <DataArray type="Float64" NumberOfComponents="3" format="ascii">
        -0.675715 -0.675715 -0.675715
        0.388668 -0.555281 -0.555281
        2 -0.571542 -0.571542
        3.61133 -0.555281 -0.555281
        4.67571 -0.675715 -0.675715
        -0.555281 0.388668 -0.555281
        0.514081 0.514081 -0.396972
        2 0.518753 -0.416784
        3.48592 0.514081 -0.396972
        4.55528 0.388668 -0.555281
        -0.571542 2 -0.571542
        0.518753 2 -0.416784
        2 2 -0.431598
        3.48125 2 -0.416784
        4.57154 2 -0.571542
        -0.555281 3.61133 -0.555281
        0.514081 3.48592 -0.396972
        2 3.48125 -0.416784
        3.48592 3.48592 -0.396972
        4.55528 3.61133 -0.555281
        -0.675715 4.67571 -0.675715
        0.388668 4.55528 -0.555281
        2 4.57154 -0.571542
        3.61133 4.55528 -0.555281
        4.67571 4.67571 -0.675715
        -0.555281 -0.555281 0.388668
        0.514081 -0.396972 0.514081
        2 -0.416784 0.518753
        3.48592 -0.396972 0.514081
        4.55528 -0.555281 0.388668
        -0.396972 0.514081 0.514081
        0.679514 0.679514 0.679514
        2 0.682823 0.682823
        3.32049 0.679514 0.679514
        4.39697 0.514081 0.514081
        -0.416784 2 0.518753
        0.682823 2 0.682823
        2 2 0.688225
        3.31718 2 0.682823
        4.41678 2 0.518753
        -0.396972 3.48592 0.514081
        0.679514 3.32049 0.679514
        2 3.31718 0.682823
        3.32049 3.32049 0.679514
        4.39697 3.48592 0.514081
        -0.555281 4.55528 0.388668
        0.514081 4.39697 0.514081
        2 4.41678 0.518753
        3.48592 4.39697 0.514081
        4.55528 4.55528 0.388668
        -0.571542 -0.571542 2
        0.518753 -0.416784 2
        2 -0.431598 2
        3.48125 -0.416784 2
        4.57154 -0.571542 2
        -0.416784 0.518753 2
        0.682823 0.682823 2
        2 0.688225 2
        3.31718 0.682823 2
        4.41678 0.518753 2
        -0.431598 2 2
        0.688225 2 2
        2 2 2
        3.31178 2 2
        4.4316 2 2
        -0.416784 3.48125 2
        0.682823 3.31718 2
        2 3.31178 2
        3.31718 3.31718 2
        4.41678 3.48125 2
        -0.571542 4.57154 2
        0.518753 4.41678 2
        2 4.4316 2
        3.48125 4.41678 2
        4.57154 4.57154 2
        -0.555281 -0.555281 3.61133
        0.514081 -0.396972 3.48592
        2 -0.416784 3.48125
        3.48592 -0.396972 3.48592
        4.55528 -0.555281 3.61133
        -0.396972 0.514081 3.48592
        0.679514 0.679514 3.32049
        2 0.682823 3.31718
        3.32049 0.679514 3.32049
        4.39697 0.514081 3.48592
        -0.416784 2 3.48125
        0.682823 2 3.31718
        2 2 3.31178
        3.31718 2 3.31718
        4.41678 2 3.48125
        -0.396972 3.48592 3.48592
        0.679514 3.32049 3.32049
        2 3.31718 3.31718
        3.32049 3.32049 3.32049
        4.39697 3.48592 3.48592
        -0.555281 4.55528 3.61133
        0.514081 4.39697 3.48592
        2 4.41678 3.48125
        3.48592 4.39697 3.48592
        4.55528 4.55528 3.61133
        -0.675715 -0.675715 4.67571
        0.388668 -0.555281 4.55528
        2 -0.571542 4.57154
        3.61133 -0.555281 4.55528
        4.67571 -0.675715 4.67571
        -0.555281 0.388668 4.55528
        0.514081 0.514081 4.39697
        2 0.518753 4.41678
        3.48592 0.514081 4.39697
        4.55528 0.388668 4.55528
        -0.571542 2 4.57154
        0.518753 2 4.41678
        2 2 4.4316
        3.48125 2 4.41678
        4.57154 2 4.57154
        -0.555281 3.61133 4.55528
        0.514081 3.48592 4.39697
        2 3.48125 4.41678
        3.48592 3.48592 4.39697
        4.55528 3.61133 4.55528
        -0.675715 4.67571 4.67571
        0.388668 4.55528 4.55528
        2 4.57154 4.57154
        3.61133 4.55528 4.55528
        4.67571 4.67571 4.67571
      </DataArray>
    </Points>
    <Cells>
      <DataArray type="Int32" Name="connectivity" format="ascii"/>
      <DataArray type="Int32" Name="offsets" format="ascii"/>
      <DataArray type="UInt8" Name="types" format="ascii"/>
    </Cells>
  </Piece>
  </UnstructuredGrid>
</VTKFile>
