<VTKFile type="UnstructuredGrid" version="0.1">
  <UnstructuredGrid>
  <Piece NumberOfPoints="125" NumberOfCells="0">
    <PointData Scalars="Radius">
      <DataArray type="Float64" Name="Radius" format="ascii">
        0.5
        0.5
        0.5
        0.5
        0.5
        0.5
        0.5
        0.5
        0.5
        0.5
        0.5
        0.5
        0.5
        0.5
        0.5
        0.5
        0.5
        0.5
        0.5
        0.5
        0.5
        0.5
        0.5
        0.5
        0.5
        0.5
        0.5
        0.5
        0.5
        0.5
        0.5
        0.5
        0.5
        0.5
        0.5
        0.5
        0.5
        0.5
        0.5
        0.5
        0.5
        0.5
        0.5
        0.5
        0.5
        0.5
        0.5
        0.5
        0.5
        0.5
        0.5
        0.5
        0.5
        0.5
        0.5
        0.5
        0.5
        0.5
        0.5
        0.5
        0.5
        0.5
        0.5
        0.5
        0.5
        0.5
        0.5
        0.5
        0.5
        0.5
        0.5
        0.5
        0.5
        0.5
        0.5
        0.5
        0.5
        0.5
        0.5
        0.5
        0.5
        0.5
        0.5
        0.5
        0.5
        0.5
        0.5
        0.5
        0.5
        0.5
        0.5
        0.5
        0.5
        0.5
        0.5
        0.5
        0.5
        0.5
        0.5
        0.5
        0.5
        0.5
        0.5
        0.5
        0.5
        0.5
        0.5
        0.5
        0.5
        0.5
        0.5
        0.5
        0.5
        0.5
        0.5
        0.5
        0.5
        0.5
        0.5
        0.5
        0.5
        0.5
        0.5
        0.5
        0.5
      </DataArray>
    </PointData>
    <Points>
      <DataArray type="Float64" NumberOfComponents="3" format="ascii">
        -0.604941 -0.604941 -0.604941
        0.53042 -0.5262 -0.5262
        2 -0.532195 -0.532195
        3.46958 -0.5262 -0.5262
        4.60494 -0.604941 -0.604941
        -0.5262 0.53042 -0.5262
        0.606186 0.606186 -0.427753
        2 0.610275 -0.434199
        3.39381 0.606186 -0.427753
        4.5262 0.53042 -0.5262
        -0.532195 2 -0.532195
        0.610275 2 -0.434199
        2 2 -0.43975
        3.38972 2 -0.434199
        4.5322 2 -0.532195
        -0.5262 3.46958 -0.5262
        0.606186 3.39381 -0.427753
        2 3.38972 -0.434199
        3.39381 3.39381 -0.427753
        4.5262 3.46958 -0.5262
        -0.604941 4.60494 -0.604941
        0.53042 4.5262 -0.5262
        2 4.5322 -0.532195
        3.46958 4.5262 -0.5262
        4.60494 4.60494 -0.604941
        -0.5262 -0.5262 0.53042
        0.606186 -0.427753 0.606186
        2 -0.434199 0.610275
        3.39381 -0.427753 0.606186
        4.5262 -0.5262 0.53042
        -0.427753 0.606186 0.606186
        0.706475 0.706475 0.706475
        2 0.710019 0.710019
        3.29352 0.706475 0.706475
        4.42775 0.606186 0.606186
        -0.434199 2 0.610275
        0.710019 2 0.710019
        2 2 0.713729
        3.28998 2 0.710019
        4.4342 2 0.610275
        -0.427753 3.39381 0.606186
        0.706475 3.29352 0.706475
        2 3.28998 0.710019
        3.29352 3.29352 0.706475
        4.42775 3.39381 0.606186
        -0.5262 4.5262 0.53042
        0.606186 4.42775 0.606186
        2 4.4342 0.610275
        3.39381 4.42775 0.606186
        4.5262 4.5262 0.53042
        -0.532195 -0.532195 2
        0.610275 -0.434199 2
        2 -0.43975 2
        3.38972 -0.434199 2
        4.5322 -0.532195 2
        -0.434199 0.610275 2
        0.710019 0.710019 2
        2 0.713729 2
        3.28998 0.710019 2
        4.4342 0.610275 2
        -0.43975 2 2
        0.713729 2 2
        2 2 2
        3.28627 2 2
        4.43975 2 2
        -0.434199 3.38972 2
        0.710019 3.28998 2
        2 3.28627 2
        3.28998 3.28998 2
        4.4342 3.38972 2
        -0.532195 4.5322 2
        0.610275 4.4342 2
        2 4.43975 2
        3.38972 4.4342 2
        4.5322 4.5322 2
        -0.5262 -0.5262 3.46958
        0.606186 -0.427753 3.39381
        2 -0.434199 3.38972
        3.39381 -0.427753 3.39381
        4.5262 -0.5262 3.46958
        -0.427753 0.606186 3.39381
        0.706475 0.706475 3.29352
        2 0.710019 3.28998
        3.29352 0.706475 3.29352
        4.42775 0.606186 3.39381
        -0.434199 2 3.38972
        0.710019 2 3.28998
        2 2 3.28627
        3.28998 2 3.28998
        4.4342 2 3.38972
        -0.427753 3.39381 3.39381
        0.706475 3.29352 3.29352
        2 3.28998 3.28998
        3.29352 3.29352 3.29352
        4.42775 3.39381 3.39381
        -0.5262 4.5262 3.46958
        0.606186 4.42775 3.39381
        2 4.4342 3.38972
        3.39381 4.42775 3.39381
        4.5262 4.5262 3.46958
        -0.604941 -0.604941 4.60494
        0.53042 -0.5262 4.5262
        2 -0.532195 4.5322
        3.46958 -0.5262 4.5262
        4.60494 -0.604941 4.60494
        -0.5262 0.53042 4.5262
        0.606186 0.606186 4.42775
        2 0.610275 4.4342
        3.39381 0.606186 4.42775
        4.5262 0.53042 4.5262
        -0.532195 2 4.5322
        0.610275 2 4.4342
        2 2 4.43975
        3.38972 2 4.4342
        4.5322 2 4.5322
        -0.5262 3.46958 4.5262
        0.606186 3.39381 4.42775
        2 3.38972 4.4342
        3.39381 3.39381 4.42775
        4.5262 3.46958 4.5262
        -0.604941 4.60494 4.60494
        0.53042 4.5262 4.5262
        2 4.5322 4.5322
        3.46958 4.5262 4.5262
        4.60494 4.60494 4.60494
      </DataArray>
    </Points>
    <Cells>
      <DataArray type="Int32" Name="connectivity" format="ascii"/>
      <DataArray type="Int32" Name="offsets" format="ascii"/>
      <DataArray type="UInt8" Name="types" format="ascii"/>
    </Cells>
  </Piece>
  </UnstructuredGrid>
</VTKFile>
