<VTKFile type="UnstructuredGrid" version="0.1">
  <UnstructuredGrid>
  <Piece NumberOfPoints="125" NumberOfCells="0">
    <PointData Scalars="Radius">
      <DataArray type="Float64" Name="Radius" format="ascii">
        0.5
        0.5
        0.5
        0.5
        0.5
        0.5
        0.5
        0.5
        0.5
        0.5
        0.5
        0.5
        0.5
        0.5
        0.5
        0.5
        0.5
        0.5
        0.5
        0.5
        0.5
        0.5
        0.5
        0.5
        0.5
        0.5
        0.5
        0.5
        0.5
        0.5
        0.5
        0.5
        0.5
        0.5
        0.5
        0.5
        0.5
        0.5
        0.5
        0.5
        0.5
        0.5
        0.5
        0.5
        0.5
        0.5
        0.5
        0.5
        0.5
        0.5
        0.5
        0.5
        0.5
        0.5
        0.5
        0.5
        0.5
        0.5
        0.5
        0.5
        0.5
        0.5
        0.5
        0.5
        0.5
        0.5
        0.5
        0.5
        0.5
        0.5
        0.5
        0.5
        0.5
        0.5
        0.5
        0.5
        0.5
        0.5
        0.5
        0.5
        0.5
        0.5
        0.5
        0.5
        0.5
        0.5
        0.5
        0.5
        0.5
        0.5
        0.5
        0.5
        0.5
        0.5
        0.5
        0.5
        0.5
        0.5
        0.5
        0.5
        0.5
        0.5
        0.5
        0.5
        0.5
        0.5
        0.5
        0.5
        0.5
        0.5
        0.5
        0.5
        0.5
        0.5
        0.5
        0.5
        0.5
        0.5
        0.5
        0.5
        0.5
        0.5
        0.5
        0.5
        0.5
      </DataArray>
    </PointData>
    <Points>
      <DataArray type="Float64" NumberOfComponents="3" format="ascii">
        -0.414994 -0.414994 -0.414994
        0.745004 -0.375164 -0.375164
        2 -0.374118 -0.374118
        3.255 -0.375164 -0.375164
        4.41499 -0.414994 -0.414994
        -0.375164 0.745004 -0.375164
        0.769661 0.769661 -0.328148
        2 0.770798 -0.327251
        3.23034 0.769661 -0.328148
        4.37516 0.745004 -0.375164
        -0.374118 2 -0.374118
        0.770798 2 -0.327251
        2 2 -0.326469
        3.2292 2 -0.327251
        4.37412 2 -0.374118
        -0.375164 3.255 -0.375164
        0.769661 3.23034 -0.328148
        2 3.2292 -0.327251
        3.23034 3.23034 -0.328148
        4.37516 3.255 -0.375164
        -0.414994 4.41499 -0.414994
        0.745004 4.37516 -0.375164
        2 4.37412 -0.374118
        3.255 4.37516 -0.375164
        4.41499 4.41499 -0.414994
        -0.375164 -0.375164 0.745004
        0.769661 -0.328148 0.769661
        2 -0.327251 0.770798
        3.23034 -0.328148 0.769661
        4.37516 -0.375164 0.745004
        -0.328148 0.769661 0.769661
        0.802597 0.802597 0.802597
        2 0.803935 0.803935
        3.1974 0.802597 0.802597
        4.32815 0.769661 0.769661
        -0.327251 2 0.770798
        0.803935 2 0.803935
        2 2 0.805236
        3.19606 2 0.803935
        4.32725 2 0.770798
        -0.328148 3.23034 0.769661
        0.802597 3.1974 0.802597
        2 3.19606 0.803935
        3.1974 3.1974 0.802597
        4.32815 3.23034 0.769661
        -0.375164 4.37516 0.745004
        0.769661 4.32815 0.769661
        2 4.32725 0.770798
        3.23034 4.32815 0.769661
        4.37516 4.37516 0.745004
        -0.374118 -0.374118 2
        0.770798 -0.327251 2
        2 -0.326469 2
        3.2292 -0.327251 2
        4.37412 -0.374118 2
        -0.327251 0.770798 2
        0.803935 0.803935 2
        2 0.805236 2
        3.19606 0.803935 2
        4.32725 0.770798 2
        -0.326469 2 2
        0.805236 2 2
        2 2 2
        3.19476 2 2
        4.32647 2 2
        -0.327251 3.2292 2
        0.803935 3.19606 2
        2 3.19476 2
        3.19606 3.19606 2
        4.32725 3.2292 2
        -0.374118 4.37412 2
        0.770798 4.32725 2
        2 4.32647 2
        3.2292 4.32725 2
        4.37412 4.37412 2
        -0.375164 -0.375164 3.255
        0.769661 -0.328148 3.23034
        2 -0.327251 3.2292
        3.23034 -0.328148 3.23034
        4.37516 -0.375164 3.255
        -0.328148 0.769661 3.23034
        0.802597 0.802597 3.1974
        2 0.803935 3.19606
        3.1974 0.802597 3.1974
        4.32815 0.769661 3.23034
        -0.327251 2 3.2292
        0.803935 2 3.19606
        2 2 3.19476
        3.19606 2 3.19606
        4.32725 2 3.2292
        -0.328148 3.23034 3.23034
        0.802597 3.1974 3.1974
        2 3.19606 3.19606
        3.1974 3.1974 3.1974
        4.32815 3.23034 3.23034
        -0.375164 4.37516 3.255
        0.769661 4.32815 3.23034
        2 4.32725 3.2292
        3.23034 4.32815 3.23034
        4.37516 4.37516 3.255
        -0.414994 -0.414994 4.41499
        0.745004 -0.375164 4.37516
        2 -0.374118 4.37412
        3.255 -0.375164 4.37516
        4.41499 -0.414994 4.41499
        -0.375164 0.745004 4.37516
        0.769661 0.769661 4.32815
        2 0.770798 4.32725
        3.23034 0.769661 4.32815
        4.37516 0.745004 4.37516
        -0.374118 2 4.37412
        0.770798 2 4.32725
        2 2 4.32647
        3.2292 2 4.32725
        4.37412 2 4.37412
        -0.375164 3.255 4.37516
        0.769661 3.23034 4.32815
        2 3.2292 4.32725
        3.23034 3.23034 4.32815
        4.37516 3.255 4.37516
        -0.414994 4.41499 4.41499
        0.745004 4.37516 4.37516
        2 4.37412 4.37412
        3.255 4.37516 4.37516
        4.41499 4.41499 4.41499
      </DataArray>
    </Points>
    <Cells>
      <DataArray type="Int32" Name="connectivity" format="ascii"/>
      <DataArray type="Int32" Name="offsets" format="ascii"/>
      <DataArray type="UInt8" Name="types" format="ascii"/>
    </Cells>
  </Piece>
  </UnstructuredGrid>
</VTKFile>
