<VTKFile type="UnstructuredGrid" version="0.1">
  <UnstructuredGrid>
  <Piece NumberOfPoints="125" NumberOfCells="0">
    <PointData Scalars="Radius">
      <DataArray type="Float64" Name="Radius" format="ascii">
        0.5
        0.5
        0.5
        0.5
        0.5
        0.5
        0.5
        0.5
        0.5
        0.5
        0.5
        0.5
        0.5
        0.5
        0.5
        0.5
        0.5
        0.5
        0.5
        0.5
        0.5
        0.5
        0.5
        0.5
        0.5
        0.5
        0.5
        0.5
        0.5
        0.5
        0.5
        0.5
        0.5
        0.5
        0.5
        0.5
        0.5
        0.5
        0.5
        0.5
        0.5
        0.5
        0.5
        0.5
        0.5
        0.5
        0.5
        0.5
        0.5
        0.5
        0.5
        0.5
        0.5
        0.5
        0.5
        0.5
        0.5
        0.5
        0.5
        0.5
        0.5
        0.5
        0.5
        0.5
        0.5
        0.5
        0.5
        0.5
        0.5
        0.5
        0.5
        0.5
        0.5
        0.5
        0.5
        0.5
        0.5
        0.5
        0.5
        0.5
        0.5
        0.5
        0.5
        0.5
        0.5
        0.5
        0.5
        0.5
        0.5
        0.5
        0.5
        0.5
        0.5
        0.5
        0.5
        0.5
        0.5
        0.5
        0.5
        0.5
        0.5
        0.5
        0.5
        0.5
        0.5
        0.5
        0.5
        0.5
        0.5
        0.5
        0.5
        0.5
        0.5
        0.5
        0.5
        0.5
        0.5
        0.5
        0.5
        0.5
        0.5
        0.5
        0.5
        0.5
        0.5
      </DataArray>
    </PointData>
    <Points>
      <DataArray type="Float64" NumberOfComponents="3" format="ascii">
        -0.85201 -0.85201 -0.85201
        0.214963 -0.593777 -0.593777
        2 -0.643029 -0.643029
        3.78504 -0.593777 -0.593777
        4.85201 -0.85201 -0.85201
        -0.593777 0.214963 -0.593777
        0.459127 0.459127 -0.284356
        2 0.43502 -0.333884
        3.54087 0.459127 -0.284356
        4.59378 0.214963 -0.593777
        -0.643029 2 -0.643029
        0.43502 2 -0.333884
        2 2 -0.380172
        3.56498 2 -0.333884
        4.64303 2 -0.643029
        -0.593777 3.78504 -0.593777
        0.459127 3.54087 -0.284356
        2 3.56498 -0.333884
        3.54087 3.54087 -0.284356
        4.59378 3.78504 -0.593777
        -0.85201 4.85201 -0.85201
        0.214963 4.59378 -0.593777
        2 4.64303 -0.643029
        3.78504 4.59378 -0.593777
        4.85201 4.85201 -0.85201
        -0.593777 -0.593777 0.214963
        0.459127 -0.284356 0.459127
        2 -0.333884 0.43502
        3.54087 -0.284356 0.459127
        4.59378 -0.593777 0.214963
        -0.284356 0.459127 0.459127
        0.762643 0.762643 0.762643
        2 0.740314 0.740314
        3.23736 0.762643 0.762643
        4.28436 0.459127 0.459127
        -0.333884 2 0.43502
        0.740314 2 0.740314
        2 2 0.733862
        3.25969 2 0.740314
        4.33388 2 0.43502
        -0.284356 3.54087 0.459127
        0.762643 3.23736 0.762643
        2 3.25969 0.740314
        3.23736 3.23736 0.762643
        4.28436 3.54087 0.459127
        -0.593777 4.59378 0.214963
        0.459127 4.28436 0.459127
        2 4.33388 0.43502
        3.54087 4.28436 0.459127
        4.59378 4.59378 0.214963
        -0.643029 -0.643029 2
        0.43502 -0.333884 2
        2 -0.380172 2
        3.56498 -0.333884 2
        4.64303 -0.643029 2
        -0.333884 0.43502 2
        0.740314 0.740314 2
        2 0.733862 2
        3.25969 0.740314 2
        4.33388 0.43502 2
        -0.380172 2 2
        0.733862 2 2
        2 2 2
        3.26614 2 2
        4.38017 2 2
        -0.333884 3.56498 2
        0.740314 3.25969 2
        2 3.26614 2
        3.25969 3.25969 2
        4.33388 3.56498 2
        -0.643029 4.64303 2
        0.43502 4.33388 2
        2 4.38017 2
        3.56498 4.33388 2
        4.64303 4.64303 2
        -0.593777 -0.593777 3.78504
        0.459127 -0.284356 3.54087
        2 -0.333884 3.56498
        3.54087 -0.284356 3.54087
        4.59378 -0.593777 3.78504
        -0.284356 0.459127 3.54087
        0.762643 0.762643 3.23736
        2 0.740314 3.25969
        3.23736 0.762643 3.23736
        4.28436 0.459127 3.54087
        -0.333884 2 3.56498
        0.740314 2 3.25969
        2 2 3.26614
        3.25969 2 3.25969
        4.33388 2 3.56498
        -0.284356 3.54087 3.54087
        0.762643 3.23736 3.23736
        2 3.25969 3.25969
        3.23736 3.23736 3.23736
        4.28436 3.54087 3.54087
        -0.593777 4.59378 3.78504
        0.459127 4.28436 3.54087
        2 4.33388 3.56498
        3.54087 4.28436 3.54087
        4.59378 4.59378 3.78504
        -0.85201 -0.85201 4.85201
        0.214963 -0.593777 4.59378
        2 -0.643029 4.64303
        3.78504 -0.593777 4.59378
        4.85201 -0.85201 4.85201
        -0.593777 0.214963 4.59378
        0.459127 0.459127 4.28436
        2 0.43502 4.33388
        3.54087 0.459127 4.28436
        4.59378 0.214963 4.59378
        -0.643029 2 4.64303
        0.43502 2 4.33388
        2 2 4.38017
        3.56498 2 4.33388
        4.64303 2 4.64303
        -0.593777 3.78504 4.59378
        0.459127 3.54087 4.28436
        2 3.56498 4.33388
        3.54087 3.54087 4.28436
        4.59378 3.78504 4.59378
        -0.85201 4.85201 4.85201
        0.214963 4.59378 4.59378
        2 4.64303 4.64303
        3.78504 4.59378 4.59378
        4.85201 4.85201 4.85201
      </DataArray>
    </Points>
    <Cells>
      <DataArray type="Int32" Name="connectivity" format="ascii"/>
      <DataArray type="Int32" Name="offsets" format="ascii"/>
      <DataArray type="UInt8" Name="types" format="ascii"/>
    </Cells>
  </Piece>
  </UnstructuredGrid>
</VTKFile>
