<VTKFile type="UnstructuredGrid" version="0.1">
  <UnstructuredGrid>
  <Piece NumberOfPoints="125" NumberOfCells="0">
    <PointData Scalars="Radius">
      <DataArray type="Float64" Name="Radius" format="ascii">
        0.5
        0.5
        0.5
        0.5
        0.5
        0.5
        0.5
        0.5
        0.5
        0.5
        0.5
        0.5
        0.5
        0.5
        0.5
        0.5
        0.5
        0.5
        0.5
        0.5
        0.5
        0.5
        0.5
        0.5
        0.5
        0.5
        0.5
        0.5
        0.5
        0.5
        0.5
        0.5
        0.5
        0.5
        0.5
        0.5
        0.5
        0.5
        0.5
        0.5
        0.5
        0.5
        0.5
        0.5
        0.5
        0.5
        0.5
        0.5
        0.5
        0.5
        0.5
        0.5
        0.5
        0.5
        0.5
        0.5
        0.5
        0.5
        0.5
        0.5
        0.5
        0.5
        0.5
        0.5
        0.5
        0.5
        0.5
        0.5
        0.5
        0.5
        0.5
        0.5
        0.5
        0.5
        0.5
        0.5
        0.5
        0.5
        0.5
        0.5
        0.5
        0.5
        0.5
        0.5
        0.5
        0.5
        0.5
        0.5
        0.5
        0.5
        0.5
        0.5
        0.5
        0.5
        0.5
        0.5
        0.5
        0.5
        0.5
        0.5
        0.5
        0.5
        0.5
        0.5
        0.5
        0.5
        0.5
        0.5
        0.5
        0.5
        0.5
        0.5
        0.5
        0.5
        0.5
        0.5
        0.5
        0.5
        0.5
        0.5
        0.5
        0.5
        0.5
        0.5
        0.5
      </DataArray>
    </PointData>
    <Points>
      <DataArray type="Float64" NumberOfComponents="3" format="ascii">
        -0.17222 -0.17222 -0.17222
        0.924036 -0.15809 -0.15809
        2 -0.157126 -0.157126
        3.07596 -0.15809 -0.15809
        4.17222 -0.17222 -0.17222
        -0.15809 0.924036 -0.15809
        0.929357 0.929357 -0.141067
        2 0.929582 -0.139939
        3.07064 0.929357 -0.141067
        4.15809 0.924036 -0.15809
        -0.157126 2 -0.157126
        0.929582 2 -0.139939
        2 2 -0.138811
        3.07042 2 -0.139939
        4.15713 2 -0.157126
        -0.15809 3.07596 -0.15809
        0.929357 3.07064 -0.141067
        2 3.07042 -0.139939
        3.07064 3.07064 -0.141067
        4.15809 3.07596 -0.15809
        -0.17222 4.17222 -0.17222
        0.924036 4.15809 -0.15809
        2 4.15713 -0.157126
        3.07596 4.15809 -0.15809
        4.17222 4.17222 -0.17222
        -0.15809 -0.15809 0.924036
        0.929357 -0.141067 0.929357
        2 -0.139939 0.929582
        3.07064 -0.141067 0.929357
        4.15809 -0.15809 0.924036
        -0.141067 0.929357 0.929357
        0.936081 0.936081 0.936081
        2 0.936389 0.936389
        3.06392 0.936081 0.936081
        4.14107 0.929357 0.929357
        -0.139939 2 0.929582
        0.936389 2 0.936389
        2 2 0.9367
        3.06361 2 0.936389
        4.13994 2 0.929582
        -0.141067 3.07064 0.929357
        0.936081 3.06392 0.936081
        2 3.06361 0.936389
        3.06392 3.06392 0.936081
        4.14107 3.07064 0.929357
        -0.15809 4.15809 0.924036
        0.929357 4.14107 0.929357
        2 4.13994 0.929582
        3.07064 4.14107 0.929357
        4.15809 4.15809 0.924036
        -0.157126 -0.157126 2
        0.929582 -0.139939 2
        2 -0.138811 2
        3.07042 -0.139939 2
        4.15713 -0.157126 2
        -0.139939 0.929582 2
        0.936389 0.936389 2
        2 0.9367 2
        3.06361 0.936389 2
        4.13994 0.929582 2
        -0.138811 2 2
        0.9367 2 2
        2 2 2
        3.0633 2 2
        4.13881 2 2
        -0.139939 3.07042 2
        0.936389 3.06361 2
        2 3.0633 2
        3.06361 3.06361 2
        4.13994 3.07042 2
        -0.157126 4.15713 2
        0.929582 4.13994 2
        2 4.13881 2
        3.07042 4.13994 2
        4.15713 4.15713 2
        -0.15809 -0.15809 3.07596
        0.929357 -0.141067 3.07064
        2 -0.139939 3.07042
        3.07064 -0.141067 3.07064
        4.15809 -0.15809 3.07596
        -0.141067 0.929357 3.07064
        0.936081 0.936081 3.06392
        2 0.936389 3.06361
        3.06392 0.936081 3.06392
        4.14107 0.929357 3.07064
        -0.139939 2 3.07042
        0.936389 2 3.06361
        2 2 3.0633
        3.06361 2 3.06361
        4.13994 2 3.07042
        -0.141067 3.07064 3.07064
        0.936081 3.06392 3.06392
        2 3.06361 3.06361
        3.06392 3.06392 3.06392
        4.14107 3.07064 3.07064
        -0.15809 4.15809 3.07596
        0.929357 4.14107 3.07064
        2 4.13994 3.07042
        3.07064 4.14107 3.07064
        4.15809 4.15809 3.07596
        -0.17222 -0.17222 4.17222
        0.924036 -0.15809 4.15809
        2 -0.157126 4.15713
        3.07596 -0.15809 4.15809
        4.17222 -0.17222 4.17222
        -0.15809 0.924036 4.15809
        0.929357 0.929357 4.14107
        2 0.929582 4.13994
        3.07064 0.929357 4.14107
        4.15809 0.924036 4.15809
        -0.157126 2 4.15713
        0.929582 2 4.13994
        2 2 4.13881
        3.07042 2 4.13994
        4.15713 2 4.15713
        -0.15809 3.07596 4.15809
        0.929357 3.07064 4.14107
        2 3.07042 4.13994
        3.07064 3.07064 4.14107
        4.15809 3.07596 4.15809
        -0.17222 4.17222 4.17222
        0.924036 4.15809 4.15809
        2 4.15713 4.15713
        3.07596 4.15809 4.15809
        4.17222 4.17222 4.17222
      </DataArray>
    </Points>
    <Cells>
      <DataArray type="Int32" Name="connectivity" format="ascii"/>
      <DataArray type="Int32" Name="offsets" format="ascii"/>
      <DataArray type="UInt8" Name="types" format="ascii"/>
    </Cells>
  </Piece>
  </UnstructuredGrid>
</VTKFile>
