<VTKFile type="UnstructuredGrid" version="0.1">
  <UnstructuredGrid>
  <Piece NumberOfPoints="125" NumberOfCells="0">
    <PointData Scalars="Radius">
      <DataArray type="Float64" Name="Radius" format="ascii">
        0.5
        0.5
        0.5
        0.5
        0.5
        0.5
        0.5
        0.5
        0.5
        0.5
        0.5
        0.5
        0.5
        0.5
        0.5
        0.5
        0.5
        0.5
        0.5
        0.5
        0.5
        0.5
        0.5
        0.5
        0.5
        0.5
        0.5
        0.5
        0.5
        0.5
        0.5
        0.5
        0.5
        0.5
        0.5
        0.5
        0.5
        0.5
        0.5
        0.5
        0.5
        0.5
        0.5
        0.5
        0.5
        0.5
        0.5
        0.5
        0.5
        0.5
        0.5
        0.5
        0.5
        0.5
        0.5
        0.5
        0.5
        0.5
        0.5
        0.5
        0.5
        0.5
        0.5
        0.5
        0.5
        0.5
        0.5
        0.5
        0.5
        0.5
        0.5
        0.5
        0.5
        0.5
        0.5
        0.5
        0.5
        0.5
        0.5
        0.5
        0.5
        0.5
        0.5
        0.5
        0.5
        0.5
        0.5
        0.5
        0.5
        0.5
        0.5
        0.5
        0.5
        0.5
        0.5
        0.5
        0.5
        0.5
        0.5
        0.5
        0.5
        0.5
        0.5
        0.5
        0.5
        0.5
        0.5
        0.5
        0.5
        0.5
        0.5
        0.5
        0.5
        0.5
        0.5
        0.5
        0.5
        0.5
        0.5
        0.5
        0.5
        0.5
        0.5
        0.5
        0.5
      </DataArray>
    </PointData>
    <Points>
      <DataArray type="Float64" NumberOfComponents="3" format="ascii">
        -1.07418 -1.07418 -1.07418
        0.169681 -0.685638 -0.685638
        2.00019 -0.643014 -0.643014
        3.78899 -0.669083 -0.669083
        5.14907 -1.14907 -1.14907
        -0.685638 0.169681 -0.685638
        0.546323 0.546323 -0.252417
        2.00005 0.60374 -0.238145
        3.4534 0.546604 -0.252147
        4.66908 0.211015 -0.669083
        -0.643014 2.00019 -0.643014
        0.60374 2.00005 -0.238145
        2 2 -0.0392148
        3.39628 2 -0.23815
        4.643 2 -0.643003
        -0.669083 3.78899 -0.669083
        0.546604 3.4534 -0.252147
        2 3.39628 -0.23815
        3.4534 3.4534 -0.252147
        4.66908 3.78899 -0.669083
        -1.14907 5.14907 -1.14907
        0.211015 4.66908 -0.669083
        2 4.643 -0.643003
        3.78899 4.66908 -0.669083
        5.14907 5.14907 -1.14907
        -0.685638 -0.685638 0.169681
        0.546323 -0.252417 0.546323
        2.00005 -0.238145 0.60374
        3.4534 -0.252147 0.546604
        4.66908 -0.669083 0.211015
        -0.252417 0.546323 0.546323
        0.915767 0.915767 0.915767
        2.00001 0.945322 0.945322
        3.08428 0.915721 0.915721
        4.25215 0.546604 0.546604
        -0.238145 2.00005 0.60374
        0.945322 2.00001 0.945322
        2 2 0.987731
        3.05468 2 0.94532
        4.23815 2 0.603717
        -0.252147 3.4534 0.546604
        0.915721 3.08428 0.915721
        2 3.05468 0.94532
        3.08428 3.08428 0.915722
        4.25215 3.4534 0.546604
        -0.669083 4.66908 0.211015
        0.546604 4.25215 0.546604
        2 4.23815 0.603717
        3.4534 4.25215 0.546604
        4.66908 4.66908 0.211015
        -0.643014 -0.643014 2.00019
        0.60374 -0.238145 2.00005
        2 -0.0392148 2
        3.39628 -0.23815 2
        4.643 -0.643003 2
        -0.238145 0.60374 2.00005
        0.945322 0.945322 2.00001
        2 0.987731 2
        3.05468 0.94532 2
        4.23815 0.603717 2
        -0.0392148 2 2
        0.987731 2 2
        2 2 2
        3.01227 2 2
        4.03921 2 2
        -0.23815 3.39628 2
        0.94532 3.05468 2
        2 3.01227 2
        3.05468 3.05468 2
        4.23815 3.39628 2
        -0.643003 4.643 2
        0.603717 4.23815 2
        2 4.03921 2
        3.39628 4.23815 2
        4.643 4.643 2
        -0.669083 -0.669083 3.78899
        0.546604 -0.252147 3.4534
        2 -0.23815 3.39628
        3.4534 -0.252147 3.4534
        4.66908 -0.669083 3.78899
        -0.252147 0.546604 3.4534
        0.915721 0.915721 3.08428
        2 0.94532 3.05468
        3.08428 0.915722 3.08428
        4.25215 0.546604 3.4534
        -0.23815 2 3.39628
        0.94532 2 3.05468
        2 2 3.01227
        3.05468 2 3.05468
        4.23815 2 3.39628
        -0.252147 3.4534 3.4534
        0.915722 3.08428 3.08428
        2 3.05468 3.05468
        3.08428 3.08428 3.08428
        4.25215 3.4534 3.4534
        -0.669083 4.66908 3.78899
        0.546604 4.25215 3.4534
        2 4.23815 3.39628
        3.4534 4.25215 3.4534
        4.66908 4.66908 3.78899
        -1.14907 -1.14907 5.14907
        0.211015 -0.669083 4.66908
        2 -0.643003 4.643
        3.78899 -0.669083 4.66908
        5.14907 -1.14907 5.14907
        -0.669083 0.211015 4.66908
        0.546604 0.546604 4.25215
        2 0.603717 4.23815
        3.4534 0.546604 4.25215
        4.66908 0.211015 4.66908
        -0.643003 2 4.643
        0.603717 2 4.23815
        2 2 4.03921
        3.39628 2 4.23815
        4.643 2 4.643
        -0.669083 3.78899 4.66908
        0.546604 3.4534 4.25215
        2 3.39628 4.23815
        3.4534 3.4534 4.25215
        4.66908 3.78899 4.66908
        -1.14907 5.14907 5.14907
        0.211015 4.66908 4.66908
        2 4.643 4.643
        3.78899 4.66908 4.66908
        5.14907 5.14907 5.14907
      </DataArray>
    </Points>
    <Cells>
      <DataArray type="Int32" Name="connectivity" format="ascii"/>
      <DataArray type="Int32" Name="offsets" format="ascii"/>
      <DataArray type="UInt8" Name="types" format="ascii"/>
    </Cells>
  </Piece>
  </UnstructuredGrid>
</VTKFile>
