<VTKFile type="UnstructuredGrid" version="0.1">
  <UnstructuredGrid>
  <Piece NumberOfPoints="125" NumberOfCells="0">
    <PointData Scalars="Radius">
      <DataArray type="Float64" Name="Radius" format="ascii">
        0.5
        0.5
        0.5
        0.5
        0.5
        0.5
        0.5
        0.5
        0.5
        0.5
        0.5
        0.5
        0.5
        0.5
        0.5
        0.5
        0.5
        0.5
        0.5
        0.5
        0.5
        0.5
        0.5
        0.5
        0.5
        0.5
        0.5
        0.5
        0.5
        0.5
        0.5
        0.5
        0.5
        0.5
        0.5
        0.5
        0.5
        0.5
        0.5
        0.5
        0.5
        0.5
        0.5
        0.5
        0.5
        0.5
        0.5
        0.5
        0.5
        0.5
        0.5
        0.5
        0.5
        0.5
        0.5
        0.5
        0.5
        0.5
        0.5
        0.5
        0.5
        0.5
        0.5
        0.5
        0.5
        0.5
        0.5
        0.5
        0.5
        0.5
        0.5
        0.5
        0.5
        0.5
        0.5
        0.5
        0.5
        0.5
        0.5
        0.5
        0.5
        0.5
        0.5
        0.5
        0.5
        0.5
        0.5
        0.5
        0.5
        0.5
        0.5
        0.5
        0.5
        0.5
        0.5
        0.5
        0.5
        0.5
        0.5
        0.5
        0.5
        0.5
        0.5
        0.5
        0.5
        0.5
        0.5
        0.5
        0.5
        0.5
        0.5
        0.5
        0.5
        0.5
        0.5
        0.5
        0.5
        0.5
        0.5
        0.5
        0.5
        0.5
        0.5
        0.5
        0.5
      </DataArray>
    </PointData>
    <Points>
      <DataArray type="Float64" NumberOfComponents="3" format="ascii">
        -0.38197 -0.38197 -0.38197
        0.770821 -0.346228 -0.346228
        2 -0.344889 -0.344889
        3.22918 -0.346228 -0.346228
        4.38197 -0.38197 -0.38197
        -0.346228 0.770821 -0.346228
        0.791424 0.791424 -0.30404
        2 0.792379 -0.302768
        3.20858 0.791424 -0.30404
        4.34623 0.770821 -0.346228
        -0.344889 2 -0.344889
        0.792379 2 -0.302768
        2 2 -0.301601
        3.20762 2 -0.302768
        4.34489 2 -0.344889
        -0.346228 3.22918 -0.346228
        0.791424 3.20858 -0.30404
        2 3.20762 -0.302768
        3.20858 3.20858 -0.30404
        4.34623 3.22918 -0.346228
        -0.38197 4.38197 -0.38197
        0.770821 4.34623 -0.346228
        2 4.34489 -0.344889
        3.22918 4.34623 -0.346228
        4.38197 4.38197 -0.38197
        -0.346228 -0.346228 0.770821
        0.791424 -0.30404 0.791424
        2 -0.302768 0.792379
        3.20858 -0.30404 0.791424
        4.34623 -0.346228 0.770821
        -0.30404 0.791424 0.791424
        0.818822 0.818822 0.818822
        2 0.819977 0.819977
        3.18118 0.818822 0.818822
        4.30404 0.791424 0.791424
        -0.302768 2 0.792379
        0.819977 2 0.819977
        2 2 0.821107
        3.18002 2 0.819977
        4.30277 2 0.792379
        -0.30404 3.20858 0.791424
        0.818822 3.18118 0.818822
        2 3.18002 0.819977
        3.18118 3.18118 0.818822
        4.30404 3.20858 0.791424
        -0.346228 4.34623 0.770821
        0.791424 4.30404 0.791424
        2 4.30277 0.792379
        3.20858 4.30404 0.791424
        4.34623 4.34623 0.770821
        -0.344889 -0.344889 2
        0.792379 -0.302768 2
        2 -0.301601 2
        3.20762 -0.302768 2
        4.34489 -0.344889 2
        -0.302768 0.792379 2
        0.819977 0.819977 2
        2 0.821107 2
        3.18002 0.819977 2
        4.30277 0.792379 2
        -0.301601 2 2
        0.821107 2 2
        2 2 2
        3.17889 2 2
        4.3016 2 2
        -0.302768 3.20762 2
        0.819977 3.18002 2
        2 3.17889 2
        3.18002 3.18002 2
        4.30277 3.20762 2
        -0.344889 4.34489 2
        0.792379 4.30277 2
        2 4.3016 2
        3.20762 4.30277 2
        4.34489 4.34489 2
        -0.346228 -0.346228 3.22918
        0.791424 -0.30404 3.20858
        2 -0.302768 3.20762
        3.20858 -0.30404 3.20858
        4.34623 -0.346228 3.22918
        -0.30404 0.791424 3.20858
        0.818822 0.818822 3.18118
        2 0.819977 3.18002
        3.18118 0.818822 3.18118
        4.30404 0.791424 3.20858
        -0.302768 2 3.20762
        0.819977 2 3.18002
        2 2 3.17889
        3.18002 2 3.18002
        4.30277 2 3.20762
        -0.30404 3.20858 3.20858
        0.818822 3.18118 3.18118
        2 3.18002 3.18002
        3.18118 3.18118 3.18118
        4.30404 3.20858 3.20858
        -0.346228 4.34623 3.22918
        0.791424 4.30404 3.20858
        2 4.30277 3.20762
        3.20858 4.30404 3.20858
        4.34623 4.34623 3.22918
        -0.38197 -0.38197 4.38197
        0.770821 -0.346228 4.34623
        2 -0.344889 4.34489
        3.22918 -0.346228 4.34623
        4.38197 -0.38197 4.38197
        -0.346228 0.770821 4.34623
        0.791424 0.791424 4.30404
        2 0.792379 4.30277
        3.20858 0.791424 4.30404
        4.34623 0.770821 4.34623
        -0.344889 2 4.34489
        0.792379 2 4.30277
        2 2 4.3016
        3.20762 2 4.30277
        4.34489 2 4.34489
        -0.346228 3.22918 4.34623
        0.791424 3.20858 4.30404
        2 3.20762 4.30277
        3.20858 3.20858 4.30404
        4.34623 3.22918 4.34623
        -0.38197 4.38197 4.38197
        0.770821 4.34623 4.34623
        2 4.34489 4.34489
        3.22918 4.34623 4.34623
        4.38197 4.38197 4.38197
      </DataArray>
    </Points>
    <Cells>
      <DataArray type="Int32" Name="connectivity" format="ascii"/>
      <DataArray type="Int32" Name="offsets" format="ascii"/>
      <DataArray type="UInt8" Name="types" format="ascii"/>
    </Cells>
  </Piece>
  </UnstructuredGrid>
</VTKFile>
