<VTKFile type="UnstructuredGrid" version="0.1">
  <UnstructuredGrid>
  <Piece NumberOfPoints="125" NumberOfCells="0">
    <PointData Scalars="Radius">
      <DataArray type="Float64" Name="Radius" format="ascii">
        0.5
        0.5
        0.5
        0.5
        0.5
        0.5
        0.5
        0.5
        0.5
        0.5
        0.5
        0.5
        0.5
        0.5
        0.5
        0.5
        0.5
        0.5
        0.5
        0.5
        0.5
        0.5
        0.5
        0.5
        0.5
        0.5
        0.5
        0.5
        0.5
        0.5
        0.5
        0.5
        0.5
        0.5
        0.5
        0.5
        0.5
        0.5
        0.5
        0.5
        0.5
        0.5
        0.5
        0.5
        0.5
        0.5
        0.5
        0.5
        0.5
        0.5
        0.5
        0.5
        0.5
        0.5
        0.5
        0.5
        0.5
        0.5
        0.5
        0.5
        0.5
        0.5
        0.5
        0.5
        0.5
        0.5
        0.5
        0.5
        0.5
        0.5
        0.5
        0.5
        0.5
        0.5
        0.5
        0.5
        0.5
        0.5
        0.5
        0.5
        0.5
        0.5
        0.5
        0.5
        0.5
        0.5
        0.5
        0.5
        0.5
        0.5
        0.5
        0.5
        0.5
        0.5
        0.5
        0.5
        0.5
        0.5
        0.5
        0.5
        0.5
        0.5
        0.5
        0.5
        0.5
        0.5
        0.5
        0.5
        0.5
        0.5
        0.5
        0.5
        0.5
        0.5
        0.5
        0.5
        0.5
        0.5
        0.5
        0.5
        0.5
        0.5
        0.5
        0.5
        0.5
      </DataArray>
    </PointData>
    <Points>
      <DataArray type="Float64" NumberOfComponents="3" format="ascii">
        -0.222538 -0.222538 -0.222538
        0.888227 -0.203679 -0.203679
        2 -0.202396 -0.202396
        3.11177 -0.203679 -0.203679
        4.22254 -0.222538 -0.222538
        -0.203679 0.888227 -0.203679
        0.896049 0.896049 -0.181099
        2 0.89639 -0.179646
        3.10395 0.896049 -0.181099
        4.20368 0.888227 -0.203679
        -0.202396 2 -0.202396
        0.89639 2 -0.179646
        2 2 -0.178207
        3.10361 2 -0.179646
        4.2024 2 -0.202396
        -0.203679 3.11177 -0.203679
        0.896049 3.10395 -0.181099
        2 3.10361 -0.179646
        3.10395 3.10395 -0.181099
        4.20368 3.11177 -0.203679
        -0.222538 4.22254 -0.222538
        0.888227 4.20368 -0.203679
        2 4.2024 -0.202396
        3.11177 4.20368 -0.203679
        4.22254 4.22254 -0.222538
        -0.203679 -0.203679 0.888227
        0.896049 -0.181099 0.896049
        2 -0.179646 0.89639
        3.10395 -0.181099 0.896049
        4.20368 -0.203679 0.888227
        -0.181099 0.896049 0.896049
        0.906048 0.906048 0.906048
        2 0.906501 0.906501
        3.09395 0.906048 0.906048
        4.1811 0.896049 0.896049
        -0.179646 2 0.89639
        0.906501 2 0.906501
        2 2 0.906965
        3.0935 2 0.906501
        4.17965 2 0.89639
        -0.181099 3.10395 0.896049
        0.906048 3.09395 0.906048
        2 3.0935 0.906501
        3.09395 3.09395 0.906048
        4.1811 3.10395 0.896049
        -0.203679 4.20368 0.888227
        0.896049 4.1811 0.896049
        2 4.17965 0.89639
        3.10395 4.1811 0.896049
        4.20368 4.20368 0.888227
        -0.202396 -0.202396 2
        0.89639 -0.179646 2
        2 -0.178207 2
        3.10361 -0.179646 2
        4.2024 -0.202396 2
        -0.179646 0.89639 2
        0.906501 0.906501 2
        2 0.906965 2
        3.0935 0.906501 2
        4.17965 0.89639 2
        -0.178207 2 2
        0.906965 2 2
        2 2 2
        3.09304 2 2
        4.17821 2 2
        -0.179646 3.10361 2
        0.906501 3.0935 2
        2 3.09304 2
        3.0935 3.0935 2
        4.17965 3.10361 2
        -0.202396 4.2024 2
        0.89639 4.17965 2
        2 4.17821 2
        3.10361 4.17965 2
        4.2024 4.2024 2
        -0.203679 -0.203679 3.11177
        0.896049 -0.181099 3.10395
        2 -0.179646 3.10361
        3.10395 -0.181099 3.10395
        4.20368 -0.203679 3.11177
        -0.181099 0.896049 3.10395
        0.906048 0.906048 3.09395
        2 0.906501 3.0935
        3.09395 0.906048 3.09395
        4.1811 0.896049 3.10395
        -0.179646 2 3.10361
        0.906501 2 3.0935
        2 2 3.09304
        3.0935 2 3.0935
        4.17965 2 3.10361
        -0.181099 3.10395 3.10395
        0.906048 3.09395 3.09395
        2 3.0935 3.0935
        3.09395 3.09395 3.09395
        4.1811 3.10395 3.10395
        -0.203679 4.20368 3.11177
        0.896049 4.1811 3.10395
        2 4.17965 3.10361
        3.10395 4.1811 3.10395
        4.20368 4.20368 3.11177
        -0.222538 -0.222538 4.22254
        0.888227 -0.203679 4.20368
        2 -0.202396 4.2024
        3.11177 -0.203679 4.20368
        4.22254 -0.222538 4.22254
        -0.203679 0.888227 4.20368
        0.896049 0.896049 4.1811
        2 0.89639 4.17965
        3.10395 0.896049 4.1811
        4.20368 0.888227 4.20368
        -0.202396 2 4.2024
        0.89639 2 4.17965
        2 2 4.17821
        3.10361 2 4.17965
        4.2024 2 4.2024
        -0.203679 3.11177 4.20368
        0.896049 3.10395 4.1811
        2 3.10361 4.17965
        3.10395 3.10395 4.1811
        4.20368 3.11177 4.20368
        -0.222538 4.22254 4.22254
        0.888227 4.20368 4.20368
        2 4.2024 4.2024
        3.11177 4.20368 4.20368
        4.22254 4.22254 4.22254
      </DataArray>
    </Points>
    <Cells>
      <DataArray type="Int32" Name="connectivity" format="ascii"/>
      <DataArray type="Int32" Name="offsets" format="ascii"/>
      <DataArray type="UInt8" Name="types" format="ascii"/>
    </Cells>
  </Piece>
  </UnstructuredGrid>
</VTKFile>
