<VTKFile type="UnstructuredGrid" version="0.1">
  <UnstructuredGrid>
  <Piece NumberOfPoints="125" NumberOfCells="0">
    <PointData Scalars="Radius">
      <DataArray type="Float64" Name="Radius" format="ascii">
        0.5
        0.5
        0.5
        0.5
        0.5
        0.5
        0.5
        0.5
        0.5
        0.5
        0.5
        0.5
        0.5
        0.5
        0.5
        0.5
        0.5
        0.5
        0.5
        0.5
        0.5
        0.5
        0.5
        0.5
        0.5
        0.5
        0.5
        0.5
        0.5
        0.5
        0.5
        0.5
        0.5
        0.5
        0.5
        0.5
        0.5
        0.5
        0.5
        0.5
        0.5
        0.5
        0.5
        0.5
        0.5
        0.5
        0.5
        0.5
        0.5
        0.5
        0.5
        0.5
        0.5
        0.5
        0.5
        0.5
        0.5
        0.5
        0.5
        0.5
        0.5
        0.5
        0.5
        0.5
        0.5
        0.5
        0.5
        0.5
        0.5
        0.5
        0.5
        0.5
        0.5
        0.5
        0.5
        0.5
        0.5
        0.5
        0.5
        0.5
        0.5
        0.5
        0.5
        0.5
        0.5
        0.5
        0.5
        0.5
        0.5
        0.5
        0.5
        0.5
        0.5
        0.5
        0.5
        0.5
        0.5
        0.5
        0.5
        0.5
        0.5
        0.5
        0.5
        0.5
        0.5
        0.5
        0.5
        0.5
        0.5
        0.5
        0.5
        0.5
        0.5
        0.5
        0.5
        0.5
        0.5
        0.5
        0.5
        0.5
        0.5
        0.5
        0.5
        0.5
        0.5
      </DataArray>
    </PointData>
    <Points>
      <DataArray type="Float64" NumberOfComponents="3" format="ascii">
        -0.804302 -0.804302 -0.804302
        0.258234 -0.5849 -0.5849
        2 -0.622816 -0.622816
        3.74177 -0.5849 -0.5849
        4.8043 -0.804302 -0.804302
        -0.5849 0.258234 -0.5849
        0.461339 0.461339 -0.307141
        2 0.449811 -0.356454
        3.53866 0.461339 -0.307141
        4.5849 0.258234 -0.5849
        -0.622816 2 -0.622816
        0.449811 2 -0.356454
        2 2 -0.394228
        3.55019 2 -0.356454
        4.62282 2 -0.622816
        -0.5849 3.74177 -0.5849
        0.461339 3.53866 -0.307141
        2 3.55019 -0.356454
        3.53866 3.53866 -0.307141
        4.5849 3.74177 -0.5849
        -0.804302 4.8043 -0.804302
        0.258234 4.5849 -0.5849
        2 4.62282 -0.622816
        3.74177 4.5849 -0.5849
        4.8043 4.8043 -0.804302
        -0.5849 -0.5849 0.258234
        0.461339 -0.307141 0.461339
        2 -0.356454 0.449811
        3.53866 -0.307141 0.461339
        4.5849 -0.5849 0.258234
        -0.307141 0.461339 0.461339
        0.728511 0.728511 0.728511
        2 0.714303 0.714303
        3.27149 0.728511 0.728511
        4.30714 0.461339 0.461339
        -0.356454 2 0.449811
        0.714303 2 0.714303
        2 2 0.712387
        3.2857 2 0.714303
        4.35645 2 0.449811
        -0.307141 3.53866 0.461339
        0.728511 3.27149 0.728511
        2 3.2857 0.714303
        3.27149 3.27149 0.728511
        4.30714 3.53866 0.461339
        -0.5849 4.5849 0.258234
        0.461339 4.30714 0.461339
        2 4.35645 0.449811
        3.53866 4.30714 0.461339
        4.5849 4.5849 0.258234
        -0.622816 -0.622816 2
        0.449811 -0.356454 2
        2 -0.394228 2
        3.55019 -0.356454 2
        4.62282 -0.622816 2
        -0.356454 0.449811 2
        0.714303 0.714303 2
        2 0.712387 2
        3.2857 0.714303 2
        4.35645 0.449811 2
        -0.394228 2 2
        0.712387 2 2
        2 2 2
        3.28761 2 2
        4.39423 2 2
        -0.356454 3.55019 2
        0.714303 3.2857 2
        2 3.28761 2
        3.2857 3.2857 2
        4.35645 3.55019 2
        -0.622816 4.62282 2
        0.449811 4.35645 2
        2 4.39423 2
        3.55019 4.35645 2
        4.62282 4.62282 2
        -0.5849 -0.5849 3.74177
        0.461339 -0.307141 3.53866
        2 -0.356454 3.55019
        3.53866 -0.307141 3.53866
        4.5849 -0.5849 3.74177
        -0.307141 0.461339 3.53866
        0.728511 0.728511 3.27149
        2 0.714303 3.2857
        3.27149 0.728511 3.27149
        4.30714 0.461339 3.53866
        -0.356454 2 3.55019
        0.714303 2 3.2857
        2 2 3.28761
        3.2857 2 3.2857
        4.35645 2 3.55019
        -0.307141 3.53866 3.53866
        0.728511 3.27149 3.27149
        2 3.2857 3.2857
        3.27149 3.27149 3.27149
        4.30714 3.53866 3.53866
        -0.5849 4.5849 3.74177
        0.461339 4.30714 3.53866
        2 4.35645 3.55019
        3.53866 4.30714 3.53866
        4.5849 4.5849 3.74177
        -0.804302 -0.804302 4.8043
        0.258234 -0.5849 4.5849
        2 -0.622816 4.62282
        3.74177 -0.5849 4.5849
        4.8043 -0.804302 4.8043
        -0.5849 0.258234 4.5849
        0.461339 0.461339 4.30714
        2 0.449811 4.35645
        3.53866 0.461339 4.30714
        4.5849 0.258234 4.5849
        -0.622816 2 4.62282
        0.449811 2 4.35645
        2 2 4.39423
        3.55019 2 4.35645
        4.62282 2 4.62282
        -0.5849 3.74177 4.5849
        0.461339 3.53866 4.30714
        2 3.55019 4.35645
        3.53866 3.53866 4.30714
        4.5849 3.74177 4.5849
        -0.804302 4.8043 4.8043
        0.258234 4.5849 4.5849
        2 4.62282 4.62282
        3.74177 4.5849 4.5849
        4.8043 4.8043 4.8043
      </DataArray>
    </Points>
    <Cells>
      <DataArray type="Int32" Name="connectivity" format="ascii"/>
      <DataArray type="Int32" Name="offsets" format="ascii"/>
      <DataArray type="UInt8" Name="types" format="ascii"/>
    </Cells>
  </Piece>
  </UnstructuredGrid>
</VTKFile>
