<VTKFile type="UnstructuredGrid" version="0.1">
  <UnstructuredGrid>
  <Piece NumberOfPoints="125" NumberOfCells="0">
    <PointData Scalars="Radius">
      <DataArray type="Float64" Name="Radius" format="ascii">
        0.5
        0.5
        0.5
        0.5
        0.5
        0.5
        0.5
        0.5
        0.5
        0.5
        0.5
        0.5
        0.5
        0.5
        0.5
        0.5
        0.5
        0.5
        0.5
        0.5
        0.5
        0.5
        0.5
        0.5
        0.5
        0.5
        0.5
        0.5
        0.5
        0.5
        0.5
        0.5
        0.5
        0.5
        0.5
        0.5
        0.5
        0.5
        0.5
        0.5
        0.5
        0.5
        0.5
        0.5
        0.5
        0.5
        0.5
        0.5
        0.5
        0.5
        0.5
        0.5
        0.5
        0.5
        0.5
        0.5
        0.5
        0.5
        0.5
        0.5
        0.5
        0.5
        0.5
        0.5
        0.5
        0.5
        0.5
        0.5
        0.5
        0.5
        0.5
        0.5
        0.5
        0.5
        0.5
        0.5
        0.5
        0.5
        0.5
        0.5
        0.5
        0.5
        0.5
        0.5
        0.5
        0.5
        0.5
        0.5
        0.5
        0.5
        0.5
        0.5
        0.5
        0.5
        0.5
        0.5
        0.5
        0.5
        0.5
        0.5
        0.5
        0.5
        0.5
        0.5
        0.5
        0.5
        0.5
        0.5
        0.5
        0.5
        0.5
        0.5
        0.5
        0.5
        0.5
        0.5
        0.5
        0.5
        0.5
        0.5
        0.5
        0.5
        0.5
        0.5
        0.5
      </DataArray>
    </PointData>
    <Points>
      <DataArray type="Float64" NumberOfComponents="3" format="ascii">
        -1.07332 -1.07332 -1.07332
        0.170342 -0.686776 -0.686776
        2.00014 -0.650943 -0.650943
        3.79352 -0.672411 -0.672411
        5.13882 -1.13882 -1.13882
        -0.686776 0.170342 -0.686776
        0.546218 0.546218 -0.261152
        2.00004 0.595462 -0.248436
        3.45345 0.54655 -0.260887
        4.67241 0.206479 -0.672411
        -0.650943 2.00014 -0.650943
        0.595462 2.00004 -0.248436
        2 2 -0.05974
        3.40456 2 -0.248439
        4.65093 2 -0.650934
        -0.672411 3.79352 -0.672411
        0.54655 3.45345 -0.260887
        2 3.40456 -0.248439
        3.45345 3.45345 -0.260887
        4.67241 3.79352 -0.672411
        -1.13882 5.13882 -1.13882
        0.206479 4.67241 -0.672411
        2 4.65093 -0.650934
        3.79352 4.67241 -0.672411
        5.13882 5.13882 -1.13882
        -0.686776 -0.686776 0.170342
        0.546218 -0.261152 0.546218
        2.00004 -0.248436 0.595462
        3.45345 -0.260887 0.54655
        4.67241 -0.672411 0.206479
        -0.261152 0.546218 0.546218
        0.923869 0.923869 0.923869
        2.00001 0.950861 0.950861
        3.07617 0.923833 0.923833
        4.26089 0.54655 0.54655
        -0.248436 2.00004 0.595462
        0.950861 2.00001 0.950861
        2 2 0.990661
        3.04914 2 0.95086
        4.24844 2 0.595444
        -0.260887 3.45345 0.54655
        0.923833 3.07617 0.923833
        2 3.04914 0.95086
        3.07617 3.07617 0.923833
        4.26089 3.45345 0.54655
        -0.672411 4.67241 0.206479
        0.54655 4.26089 0.54655
        2 4.24844 0.595444
        3.45345 4.26089 0.54655
        4.67241 4.67241 0.206479
        -0.650943 -0.650943 2.00014
        0.595462 -0.248436 2.00004
        2 -0.05974 2
        3.40456 -0.248439 2
        4.65093 -0.650934 2
        -0.248436 0.595462 2.00004
        0.950861 0.950861 2.00001
        2 0.990661 2
        3.04914 0.95086 2
        4.24844 0.595444 2
        -0.05974 2 2
        0.990661 2 2
        2 2 2
        3.00934 2 2
        4.05974 2 2
        -0.248439 3.40456 2
        0.95086 3.04914 2
        2 3.00934 2
        3.04914 3.04914 2
        4.24844 3.40456 2
        -0.650934 4.65093 2
        0.595444 4.24844 2
        2 4.05974 2
        3.40456 4.24844 2
        4.65093 4.65093 2
        -0.672411 -0.672411 3.79352
        0.54655 -0.260887 3.45345
        2 -0.248439 3.40456
        3.45345 -0.260887 3.45345
        4.67241 -0.672411 3.79352
        -0.260887 0.54655 3.45345
        0.923833 0.923833 3.07617
        2 0.95086 3.04914
        3.07617 0.923833 3.07617
        4.26089 0.54655 3.45345
        -0.248439 2 3.40456
        0.95086 2 3.04914
        2 2 3.00934
        3.04914 2 3.04914
        4.24844 2 3.40456
        -0.260887 3.45345 3.45345
        0.923833 3.07617 3.07617
        2 3.04914 3.04914
        3.07617 3.07617 3.07617
        4.26089 3.45345 3.45345
        -0.672411 4.67241 3.79352
        0.54655 4.26089 3.45345
        2 4.24844 3.40456
        3.45345 4.26089 3.45345
        4.67241 4.67241 3.79352
        -1.13882 -1.13882 5.13882
        0.206479 -0.672411 4.67241
        2 -0.650934 4.65093
        3.79352 -0.672411 4.67241
        5.13882 -1.13882 5.13882
        -0.672411 0.206479 4.67241
        0.54655 0.54655 4.26089
        2 0.595444 4.24844
        3.45345 0.54655 4.26089
        4.67241 0.206479 4.67241
        -0.650934 2 4.65093
        0.595444 2 4.24844
        2 2 4.05974
        3.40456 2 4.24844
        4.65093 2 4.65093
        -0.672411 3.79352 4.67241
        0.54655 3.45345 4.26089
        2 3.40456 4.24844
        3.45345 3.45345 4.26089
        4.67241 3.79352 4.67241
        -1.13882 5.13882 5.13882
        0.206479 4.67241 4.67241
        2 4.65093 4.65093
        3.79352 4.67241 4.67241
        5.13882 5.13882 5.13882
      </DataArray>
    </Points>
    <Cells>
      <DataArray type="Int32" Name="connectivity" format="ascii"/>
      <DataArray type="Int32" Name="offsets" format="ascii"/>
      <DataArray type="UInt8" Name="types" format="ascii"/>
    </Cells>
  </Piece>
  </UnstructuredGrid>
</VTKFile>
