<VTKFile type="UnstructuredGrid" version="0.1">
  <UnstructuredGrid>
  <Piece NumberOfPoints="125" NumberOfCells="0">
    <PointData Scalars="Radius">
      <DataArray type="Float64" Name="Radius" format="ascii">
        0.5
        0.5
        0.5
        0.5
        0.5
        0.5
        0.5
        0.5
        0.5
        0.5
        0.5
        0.5
        0.5
        0.5
        0.5
        0.5
        0.5
        0.5
        0.5
        0.5
        0.5
        0.5
        0.5
        0.5
        0.5
        0.5
        0.5
        0.5
        0.5
        0.5
        0.5
        0.5
        0.5
        0.5
        0.5
        0.5
        0.5
        0.5
        0.5
        0.5
        0.5
        0.5
        0.5
        0.5
        0.5
        0.5
        0.5
        0.5
        0.5
        0.5
        0.5
        0.5
        0.5
        0.5
        0.5
        0.5
        0.5
        0.5
        0.5
        0.5
        0.5
        0.5
        0.5
        0.5
        0.5
        0.5
        0.5
        0.5
        0.5
        0.5
        0.5
        0.5
        0.5
        0.5
        0.5
        0.5
        0.5
        0.5
        0.5
        0.5
        0.5
        0.5
        0.5
        0.5
        0.5
        0.5
        0.5
        0.5
        0.5
        0.5
        0.5
        0.5
        0.5
        0.5
        0.5
        0.5
        0.5
        0.5
        0.5
        0.5
        0.5
        0.5
        0.5
        0.5
        0.5
        0.5
        0.5
        0.5
        0.5
        0.5
        0.5
        0.5
        0.5
        0.5
        0.5
        0.5
        0.5
        0.5
        0.5
        0.5
        0.5
        0.5
        0.5
        0.5
        0.5
      </DataArray>
    </PointData>
    <Points>
      <DataArray type="Float64" NumberOfComponents="3" format="ascii">
        -1.0697 -1.0697 -1.0697
        0.156053 -0.668768 -0.668768
        2.00062 -0.593547 -0.593547
        3.77197 -0.638311 -0.638311
        5.20029 -1.20029 -1.20029
        -0.668768 0.156053 -0.668768
        0.548758 0.548758 -0.207112
        2.00015 0.642797 -0.172197
        3.45177 0.548223 -0.207129
        4.63831 0.228027 -0.638311
        -0.593547 2.00062 -0.593547
        0.642797 2.00015 -0.172197
        2 2 0.00761254
        3.35728 2 -0.172215
        4.59351 2 -0.593514
        -0.638311 3.77197 -0.638311
        0.548223 3.45177 -0.207129
        2 3.35728 -0.172215
        3.45178 3.45178 -0.207129
        4.63831 3.77197 -0.638311
        -1.20029 5.20029 -1.20029
        0.228027 4.63831 -0.638311
        2 4.59351 -0.593514
        3.77197 4.63831 -0.638311
        5.20029 5.20029 -1.20029
        -0.668768 -0.668768 0.156053
        0.548758 -0.207112 0.548758
        2.00015 -0.172197 0.642797
        3.45177 -0.207129 0.548223
        4.63831 -0.638311 0.228027
        -0.207112 0.548758 0.548758
        0.863658 0.863658 0.863658
        2.00004 0.900944 0.900944
        3.13647 0.863535 0.863535
        4.20713 0.548223 0.548223
        -0.172197 2.00015 0.642797
        0.900944 2.00004 0.900944
        2 2 1.00213
        3.09906 2 0.90094
        4.17221 2 0.642722
        -0.207129 3.45177 0.548223
        0.863535 3.13647 0.863535
        2 3.09906 0.90094
        3.13646 3.13646 0.863536
        4.20713 3.45178 0.548223
        -0.638311 4.63831 0.228027
        0.548223 4.20713 0.548223
        2 4.17221 0.642722
        3.45178 4.20713 0.548223
        4.63831 4.63831 0.228027
        -0.593547 -0.593547 2.00062
        0.642797 -0.172197 2.00015
        2 0.00761254 2
        3.35728 -0.172215 2
        4.59351 -0.593514 2
        -0.172197 0.642797 2.00015
        0.900944 0.900944 2.00004
        2 1.00213 2
        3.09906 0.90094 2
        4.17221 0.642722 2
        0.00761254 2 2
        1.00213 2 2
        2 2 2
        2.99787 2 2
        3.99239 2 2
        -0.172215 3.35728 2
        0.90094 3.09906 2
        2 2.99787 2
        3.09906 3.09906 2
        4.17221 3.35728 2
        -0.593514 4.59351 2
        0.642722 4.17221 2
        2 3.99239 2
        3.35728 4.17221 2
        4.59351 4.59351 2
        -0.638311 -0.638311 3.77197
        0.548223 -0.207129 3.45177
        2 -0.172215 3.35728
        3.45178 -0.207129 3.45178
        4.63831 -0.638311 3.77197
        -0.207129 0.548223 3.45177
        0.863535 0.863535 3.13647
        2 0.90094 3.09906
        3.13646 0.863536 3.13646
        4.20713 0.548223 3.45178
        -0.172215 2 3.35728
        0.90094 2 3.09906
        2 2 2.99787
        3.09906 2 3.09906
        4.17221 2 3.35728
        -0.207129 3.45178 3.45178
        0.863536 3.13646 3.13646
        2 3.09906 3.09906
        3.13646 3.13646 3.13646
        4.20713 3.45178 3.45178
        -0.638311 4.63831 3.77197
        0.548223 4.20713 3.45178
        2 4.17221 3.35728
        3.45178 4.20713 3.45178
        4.63831 4.63831 3.77197
        -1.20029 -1.20029 5.20029
        0.228027 -0.638311 4.63831
        2 -0.593514 4.59351
        3.77197 -0.638311 4.63831
        5.20029 -1.20029 5.20029
        -0.638311 0.228027 4.63831
        0.548223 0.548223 4.20713
        2 0.642722 4.17221
        3.45178 0.548223 4.20713
        4.63831 0.228027 4.63831
        -0.593514 2 4.59351
        0.642722 2 4.17221
        2 2 3.99239
        3.35728 2 4.17221
        4.59351 2 4.59351
        -0.638311 3.77197 4.63831
        0.548223 3.45178 4.20713
        2 3.35728 4.17221
        3.45178 3.45178 4.20713
        4.63831 3.77197 4.63831
        -1.20029 5.20029 5.20029
        0.228027 4.63831 4.63831
        2 4.59351 4.59351
        3.77197 4.63831 4.63831
        5.20029 5.20029 5.20029
      </DataArray>
    </Points>
    <Cells>
      <DataArray type="Int32" Name="connectivity" format="ascii"/>
      <DataArray type="Int32" Name="offsets" format="ascii"/>
      <DataArray type="UInt8" Name="types" format="ascii"/>
    </Cells>
  </Piece>
  </UnstructuredGrid>
</VTKFile>
