<VTKFile type="UnstructuredGrid" version="0.1">
  <UnstructuredGrid>
  <Piece NumberOfPoints="125" NumberOfCells="0">
    <PointData Scalars="Radius">
      <DataArray type="Float64" Name="Radius" format="ascii">
        0.5
        0.5
        0.5
        0.5
        0.5
        0.5
        0.5
        0.5
        0.5
        0.5
        0.5
        0.5
        0.5
        0.5
        0.5
        0.5
        0.5
        0.5
        0.5
        0.5
        0.5
        0.5
        0.5
        0.5
        0.5
        0.5
        0.5
        0.5
        0.5
        0.5
        0.5
        0.5
        0.5
        0.5
        0.5
        0.5
        0.5
        0.5
        0.5
        0.5
        0.5
        0.5
        0.5
        0.5
        0.5
        0.5
        0.5
        0.5
        0.5
        0.5
        0.5
        0.5
        0.5
        0.5
        0.5
        0.5
        0.5
        0.5
        0.5
        0.5
        0.5
        0.5
        0.5
        0.5
        0.5
        0.5
        0.5
        0.5
        0.5
        0.5
        0.5
        0.5
        0.5
        0.5
        0.5
        0.5
        0.5
        0.5
        0.5
        0.5
        0.5
        0.5
        0.5
        0.5
        0.5
        0.5
        0.5
        0.5
        0.5
        0.5
        0.5
        0.5
        0.5
        0.5
        0.5
        0.5
        0.5
        0.5
        0.5
        0.5
        0.5
        0.5
        0.5
        0.5
        0.5
        0.5
        0.5
        0.5
        0.5
        0.5
        0.5
        0.5
        0.5
        0.5
        0.5
        0.5
        0.5
        0.5
        0.5
        0.5
        0.5
        0.5
        0.5
        0.5
        0.5
      </DataArray>
    </PointData>
    <Points>
      <DataArray type="Float64" NumberOfComponents="3" format="ascii">
        -0.608608 -0.608608 -0.608608
        0.523429 -0.528421 -0.528421
        2 -0.534792 -0.534792
        3.47657 -0.528421 -0.528421
        4.60861 -0.608608 -0.608608
        -0.528421 0.523429 -0.528421
        0.601317 0.601317 -0.427844
        2 0.605538 -0.434687
        3.39868 0.601317 -0.427844
        4.52842 0.523429 -0.528421
        -0.534792 2 -0.534792
        0.605538 2 -0.434687
        2 2 -0.44054
        3.39446 2 -0.434687
        4.53479 2 -0.534792
        -0.528421 3.47657 -0.528421
        0.601317 3.39868 -0.427844
        2 3.39446 -0.434687
        3.39868 3.39868 -0.427844
        4.52842 3.47657 -0.528421
        -0.608608 4.60861 -0.608608
        0.523429 4.52842 -0.528421
        2 4.53479 -0.534792
        3.47657 4.52842 -0.528421
        4.60861 4.60861 -0.608608
        -0.528421 -0.528421 0.523429
        0.601317 -0.427844 0.601317
        2 -0.434687 0.605538
        3.39868 -0.427844 0.601317
        4.52842 -0.528421 0.523429
        -0.427844 0.601317 0.601317
        0.704345 0.704345 0.704345
        2 0.707978 0.707978
        3.29565 0.704345 0.704345
        4.42784 0.601317 0.601317
        -0.434687 2 0.605538
        0.707978 2 0.707978
        2 2 0.711806
        3.29202 2 0.707978
        4.43469 2 0.605538
        -0.427844 3.39868 0.601317
        0.704345 3.29565 0.704345
        2 3.29202 0.707978
        3.29565 3.29565 0.704345
        4.42784 3.39868 0.601317
        -0.528421 4.52842 0.523429
        0.601317 4.42784 0.601317
        2 4.43469 0.605538
        3.39868 4.42784 0.601317
        4.52842 4.52842 0.523429
        -0.534792 -0.534792 2
        0.605538 -0.434687 2
        2 -0.44054 2
        3.39446 -0.434687 2
        4.53479 -0.534792 2
        -0.434687 0.605538 2
        0.707978 0.707978 2
        2 0.711806 2
        3.29202 0.707978 2
        4.43469 0.605538 2
        -0.44054 2 2
        0.711806 2 2
        2 2 2
        3.28819 2 2
        4.44054 2 2
        -0.434687 3.39446 2
        0.707978 3.29202 2
        2 3.28819 2
        3.29202 3.29202 2
        4.43469 3.39446 2
        -0.534792 4.53479 2
        0.605538 4.43469 2
        2 4.44054 2
        3.39446 4.43469 2
        4.53479 4.53479 2
        -0.528421 -0.528421 3.47657
        0.601317 -0.427844 3.39868
        2 -0.434687 3.39446
        3.39868 -0.427844 3.39868
        4.52842 -0.528421 3.47657
        -0.427844 0.601317 3.39868
        0.704345 0.704345 3.29565
        2 0.707978 3.29202
        3.29565 0.704345 3.29565
        4.42784 0.601317 3.39868
        -0.434687 2 3.39446
        0.707978 2 3.29202
        2 2 3.28819
        3.29202 2 3.29202
        4.43469 2 3.39446
        -0.427844 3.39868 3.39868
        0.704345 3.29565 3.29565
        2 3.29202 3.29202
        3.29565 3.29565 3.29565
        4.42784 3.39868 3.39868
        -0.528421 4.52842 3.47657
        0.601317 4.42784 3.39868
        2 4.43469 3.39446
        3.39868 4.42784 3.39868
        4.52842 4.52842 3.47657
        -0.608608 -0.608608 4.60861
        0.523429 -0.528421 4.52842
        2 -0.534792 4.53479
        3.47657 -0.528421 4.52842
        4.60861 -0.608608 4.60861
        -0.528421 0.523429 4.52842
        0.601317 0.601317 4.42784
        2 0.605538 4.43469
        3.39868 0.601317 4.42784
        4.52842 0.523429 4.52842
        -0.534792 2 4.53479
        0.605538 2 4.43469
        2 2 4.44054
        3.39446 2 4.43469
        4.53479 2 4.53479
        -0.528421 3.47657 4.52842
        0.601317 3.39868 4.42784
        2 3.39446 4.43469
        3.39868 3.39868 4.42784
        4.52842 3.47657 4.52842
        -0.608608 4.60861 4.60861
        0.523429 4.52842 4.52842
        2 4.53479 4.53479
        3.47657 4.52842 4.52842
        4.60861 4.60861 4.60861
      </DataArray>
    </Points>
    <Cells>
      <DataArray type="Int32" Name="connectivity" format="ascii"/>
      <DataArray type="Int32" Name="offsets" format="ascii"/>
      <DataArray type="UInt8" Name="types" format="ascii"/>
    </Cells>
  </Piece>
  </UnstructuredGrid>
</VTKFile>
