<VTKFile type="UnstructuredGrid" version="0.1">
  <UnstructuredGrid>
  <Piece NumberOfPoints="125" NumberOfCells="0">
    <PointData Scalars="Radius">
      <DataArray type="Float64" Name="Radius" format="ascii">
        0.5
        0.5
        0.5
        0.5
        0.5
        0.5
        0.5
        0.5
        0.5
        0.5
        0.5
        0.5
        0.5
        0.5
        0.5
        0.5
        0.5
        0.5
        0.5
        0.5
        0.5
        0.5
        0.5
        0.5
        0.5
        0.5
        0.5
        0.5
        0.5
        0.5
        0.5
        0.5
        0.5
        0.5
        0.5
        0.5
        0.5
        0.5
        0.5
        0.5
        0.5
        0.5
        0.5
        0.5
        0.5
        0.5
        0.5
        0.5
        0.5
        0.5
        0.5
        0.5
        0.5
        0.5
        0.5
        0.5
        0.5
        0.5
        0.5
        0.5
        0.5
        0.5
        0.5
        0.5
        0.5
        0.5
        0.5
        0.5
        0.5
        0.5
        0.5
        0.5
        0.5
        0.5
        0.5
        0.5
        0.5
        0.5
        0.5
        0.5
        0.5
        0.5
        0.5
        0.5
        0.5
        0.5
        0.5
        0.5
        0.5
        0.5
        0.5
        0.5
        0.5
        0.5
        0.5
        0.5
        0.5
        0.5
        0.5
        0.5
        0.5
        0.5
        0.5
        0.5
        0.5
        0.5
        0.5
        0.5
        0.5
        0.5
        0.5
        0.5
        0.5
        0.5
        0.5
        0.5
        0.5
        0.5
        0.5
        0.5
        0.5
        0.5
        0.5
        0.5
        0.5
      </DataArray>
    </PointData>
    <Points>
      <DataArray type="Float64" NumberOfComponents="3" format="ascii">
        -0.622533 -0.622533 -0.622533
        0.495133 -0.536198 -0.536198
        2 -0.544199 -0.544199
        3.50487 -0.536198 -0.536198
        4.62253 -0.622533 -0.622533
        -0.536198 0.495133 -0.536198
        0.5819 0.5819 -0.426481
        2 0.586633 -0.435105
        3.4181 0.5819 -0.426481
        4.5362 0.495133 -0.536198
        -0.544199 2 -0.544199
        0.586633 2 -0.435105
        2 2 -0.44228
        3.41337 2 -0.435105
        4.5442 2 -0.544199
        -0.536198 3.50487 -0.536198
        0.5819 3.4181 -0.426481
        2 3.41337 -0.435105
        3.4181 3.4181 -0.426481
        4.5362 3.50487 -0.536198
        -0.622533 4.62253 -0.622533
        0.495133 4.5362 -0.536198
        2 4.5442 -0.544199
        3.50487 4.5362 -0.536198
        4.62253 4.62253 -0.622533
        -0.536198 -0.536198 0.495133
        0.5819 -0.426481 0.5819
        2 -0.435105 0.586633
        3.4181 -0.426481 0.5819
        4.5362 -0.536198 0.495133
        -0.426481 0.5819 0.5819
        0.696385 0.696385 0.696385
        2 0.700345 0.700345
        3.30361 0.696385 0.696385
        4.42648 0.5819 0.5819
        -0.435105 2 0.586633
        0.700345 2 0.700345
        2 2 0.704657
        3.29966 2 0.700345
        4.43511 2 0.586633
        -0.426481 3.4181 0.5819
        0.696385 3.30361 0.696385
        2 3.29966 0.700345
        3.30361 3.30361 0.696385
        4.42648 3.4181 0.5819
        -0.536198 4.5362 0.495133
        0.5819 4.42648 0.5819
        2 4.43511 0.586633
        3.4181 4.42648 0.5819
        4.5362 4.5362 0.495133
        -0.544199 -0.544199 2
        0.586633 -0.435105 2
        2 -0.44228 2
        3.41337 -0.435105 2
        4.5442 -0.544199 2
        -0.435105 0.586633 2
        0.700345 0.700345 2
        2 0.704657 2
        3.29966 0.700345 2
        4.43511 0.586633 2
        -0.44228 2 2
        0.704657 2 2
        2 2 2
        3.29534 2 2
        4.44228 2 2
        -0.435105 3.41337 2
        0.700345 3.29966 2
        2 3.29534 2
        3.29966 3.29966 2
        4.43511 3.41337 2
        -0.544199 4.5442 2
        0.586633 4.43511 2
        2 4.44228 2
        3.41337 4.43511 2
        4.5442 4.5442 2
        -0.536198 -0.536198 3.50487
        0.5819 -0.426481 3.4181
        2 -0.435105 3.41337
        3.4181 -0.426481 3.4181
        4.5362 -0.536198 3.50487
        -0.426481 0.5819 3.4181
        0.696385 0.696385 3.30361
        2 0.700345 3.29966
        3.30361 0.696385 3.30361
        4.42648 0.5819 3.4181
        -0.435105 2 3.41337
        0.700345 2 3.29966
        2 2 3.29534
        3.29966 2 3.29966
        4.43511 2 3.41337
        -0.426481 3.4181 3.4181
        0.696385 3.30361 3.30361
        2 3.29966 3.29966
        3.30361 3.30361 3.30361
        4.42648 3.4181 3.4181
        -0.536198 4.5362 3.50487
        0.5819 4.42648 3.4181
        2 4.43511 3.41337
        3.4181 4.42648 3.4181
        4.5362 4.5362 3.50487
        -0.622533 -0.622533 4.62253
        0.495133 -0.536198 4.5362
        2 -0.544199 4.5442
        3.50487 -0.536198 4.5362
        4.62253 -0.622533 4.62253
        -0.536198 0.495133 4.5362
        0.5819 0.5819 4.42648
        2 0.586633 4.43511
        3.4181 0.5819 4.42648
        4.5362 0.495133 4.5362
        -0.544199 2 4.5442
        0.586633 2 4.43511
        2 2 4.44228
        3.41337 2 4.43511
        4.5442 2 4.5442
        -0.536198 3.50487 4.5362
        0.5819 3.4181 4.42648
        2 3.41337 4.43511
        3.4181 3.4181 4.42648
        4.5362 3.50487 4.5362
        -0.622533 4.62253 4.62253
        0.495133 4.5362 4.5362
        2 4.5442 4.5442
        3.50487 4.5362 4.5362
        4.62253 4.62253 4.62253
      </DataArray>
    </Points>
    <Cells>
      <DataArray type="Int32" Name="connectivity" format="ascii"/>
      <DataArray type="Int32" Name="offsets" format="ascii"/>
      <DataArray type="UInt8" Name="types" format="ascii"/>
    </Cells>
  </Piece>
  </UnstructuredGrid>
</VTKFile>
