<VTKFile type="UnstructuredGrid" version="0.1">
  <UnstructuredGrid>
  <Piece NumberOfPoints="125" NumberOfCells="0">
    <PointData Scalars="Radius">
      <DataArray type="Float64" Name="Radius" format="ascii">
        0.5
        0.5
        0.5
        0.5
        0.5
        0.5
        0.5
        0.5
        0.5
        0.5
        0.5
        0.5
        0.5
        0.5
        0.5
        0.5
        0.5
        0.5
        0.5
        0.5
        0.5
        0.5
        0.5
        0.5
        0.5
        0.5
        0.5
        0.5
        0.5
        0.5
        0.5
        0.5
        0.5
        0.5
        0.5
        0.5
        0.5
        0.5
        0.5
        0.5
        0.5
        0.5
        0.5
        0.5
        0.5
        0.5
        0.5
        0.5
        0.5
        0.5
        0.5
        0.5
        0.5
        0.5
        0.5
        0.5
        0.5
        0.5
        0.5
        0.5
        0.5
        0.5
        0.5
        0.5
        0.5
        0.5
        0.5
        0.5
        0.5
        0.5
        0.5
        0.5
        0.5
        0.5
        0.5
        0.5
        0.5
        0.5
        0.5
        0.5
        0.5
        0.5
        0.5
        0.5
        0.5
        0.5
        0.5
        0.5
        0.5
        0.5
        0.5
        0.5
        0.5
        0.5
        0.5
        0.5
        0.5
        0.5
        0.5
        0.5
        0.5
        0.5
        0.5
        0.5
        0.5
        0.5
        0.5
        0.5
        0.5
        0.5
        0.5
        0.5
        0.5
        0.5
        0.5
        0.5
        0.5
        0.5
        0.5
        0.5
        0.5
        0.5
        0.5
        0.5
        0.5
      </DataArray>
    </PointData>
    <Points>
      <DataArray type="Float64" NumberOfComponents="3" format="ascii">
        -0.033753 -0.033753 -0.033753
        0.996626 -0.0312535 -0.0312535
        2 -0.0311408 -0.0311408
        3.00337 -0.0312535 -0.0312535
        4.03375 -0.033753 -0.033753
        -0.0312535 0.996626 -0.0312535
        0.997073 0.997073 -0.0282369
        2 0.99708 -0.0280923
        3.00293 0.997073 -0.0282369
        4.03125 0.996626 -0.0312535
        -0.0311408 2 -0.0311408
        0.99708 2 -0.0280923
        2 2 -0.0279481
        3.00292 2 -0.0280923
        4.03114 2 -0.0311408
        -0.0312535 3.00337 -0.0312535
        0.997073 3.00293 -0.0282369
        2 3.00292 -0.0280923
        3.00293 3.00293 -0.0282369
        4.03125 3.00337 -0.0312535
        -0.033753 4.03375 -0.033753
        0.996626 4.03125 -0.0312535
        2 4.03114 -0.0311408
        3.00337 4.03125 -0.0312535
        4.03375 4.03375 -0.033753
        -0.0312535 -0.0312535 0.996626
        0.997073 -0.0282369 0.997073
        2 -0.0280923 0.99708
        3.00293 -0.0282369 0.997073
        4.03125 -0.0312535 0.996626
        -0.0282369 0.997073 0.997073
        0.997635 0.997635 0.997635
        2 0.997645 0.997645
        3.00237 0.997635 0.997635
        4.02824 0.997073 0.997073
        -0.0280923 2 0.99708
        0.997645 2 0.997645
        2 2 0.997654
        3.00236 2 0.997645
        4.02809 2 0.99708
        -0.0282369 3.00293 0.997073
        0.997635 3.00237 0.997635
        2 3.00236 0.997645
        3.00237 3.00237 0.997635
        4.02824 3.00293 0.997073
        -0.0312535 4.03125 0.996626
        0.997073 4.02824 0.997073
        2 4.02809 0.99708
        3.00293 4.02824 0.997073
        4.03125 4.03125 0.996626
        -0.0311408 -0.0311408 2
        0.99708 -0.0280923 2
        2 -0.0279481 2
        3.00292 -0.0280923 2
        4.03114 -0.0311408 2
        -0.0280923 0.99708 2
        0.997645 0.997645 2
        2 0.997654 2
        3.00236 0.997645 2
        4.02809 0.99708 2
        -0.0279481 2 2
        0.997654 2 2
        2 2 2
        3.00235 2 2
        4.02795 2 2
        -0.0280923 3.00292 2
        0.997645 3.00236 2
        2 3.00235 2
        3.00236 3.00236 2
        4.02809 3.00292 2
        -0.0311408 4.03114 2
        0.99708 4.02809 2
        2 4.02795 2
        3.00292 4.02809 2
        4.03114 4.03114 2
        -0.0312535 -0.0312535 3.00337
        0.997073 -0.0282369 3.00293
        2 -0.0280923 3.00292
        3.00293 -0.0282369 3.00293
        4.03125 -0.0312535 3.00337
        -0.0282369 0.997073 3.00293
        0.997635 0.997635 3.00237
        2 0.997645 3.00236
        3.00237 0.997635 3.00237
        4.02824 0.997073 3.00293
        -0.0280923 2 3.00292
        0.997645 2 3.00236
        2 2 3.00235
        3.00236 2 3.00236
        4.02809 2 3.00292
        -0.0282369 3.00293 3.00293
        0.997635 3.00237 3.00237
        2 3.00236 3.00236
        3.00237 3.00237 3.00237
        4.02824 3.00293 3.00293
        -0.0312535 4.03125 3.00337
        0.997073 4.02824 3.00293
        2 4.02809 3.00292
        3.00293 4.02824 3.00293
        4.03125 4.03125 3.00337
        -0.033753 -0.033753 4.03375
        0.996626 -0.0312535 4.03125
        2 -0.0311408 4.03114
        3.00337 -0.0312535 4.03125
        4.03375 -0.033753 4.03375
        -0.0312535 0.996626 4.03125
        0.997073 0.997073 4.02824
        2 0.99708 4.02809
        3.00293 0.997073 4.02824
        4.03125 0.996626 4.03125
        -0.0311408 2 4.03114
        0.99708 2 4.02809
        2 2 4.02795
        3.00292 2 4.02809
        4.03114 2 4.03114
        -0.0312535 3.00337 4.03125
        0.997073 3.00293 4.02824
        2 3.00292 4.02809
        3.00293 3.00293 4.02824
        4.03125 3.00337 4.03125
        -0.033753 4.03375 4.03375
        0.996626 4.03125 4.03125
        2 4.03114 4.03114
        3.00337 4.03125 4.03125
        4.03375 4.03375 4.03375
      </DataArray>
    </Points>
    <Cells>
      <DataArray type="Int32" Name="connectivity" format="ascii"/>
      <DataArray type="Int32" Name="offsets" format="ascii"/>
      <DataArray type="UInt8" Name="types" format="ascii"/>
    </Cells>
  </Piece>
  </UnstructuredGrid>
</VTKFile>
