<VTKFile type="UnstructuredGrid" version="0.1">
  <UnstructuredGrid>
  <Piece NumberOfPoints="125" NumberOfCells="0">
    <PointData Scalars="Radius">
      <DataArray type="Float64" Name="Radius" format="ascii">
        0.5
        0.5
        0.5
        0.5
        0.5
        0.5
        0.5
        0.5
        0.5
        0.5
        0.5
        0.5
        0.5
        0.5
        0.5
        0.5
        0.5
        0.5
        0.5
        0.5
        0.5
        0.5
        0.5
        0.5
        0.5
        0.5
        0.5
        0.5
        0.5
        0.5
        0.5
        0.5
        0.5
        0.5
        0.5
        0.5
        0.5
        0.5
        0.5
        0.5
        0.5
        0.5
        0.5
        0.5
        0.5
        0.5
        0.5
        0.5
        0.5
        0.5
        0.5
        0.5
        0.5
        0.5
        0.5
        0.5
        0.5
        0.5
        0.5
        0.5
        0.5
        0.5
        0.5
        0.5
        0.5
        0.5
        0.5
        0.5
        0.5
        0.5
        0.5
        0.5
        0.5
        0.5
        0.5
        0.5
        0.5
        0.5
        0.5
        0.5
        0.5
        0.5
        0.5
        0.5
        0.5
        0.5
        0.5
        0.5
        0.5
        0.5
        0.5
        0.5
        0.5
        0.5
        0.5
        0.5
        0.5
        0.5
        0.5
        0.5
        0.5
        0.5
        0.5
        0.5
        0.5
        0.5
        0.5
        0.5
        0.5
        0.5
        0.5
        0.5
        0.5
        0.5
        0.5
        0.5
        0.5
        0.5
        0.5
        0.5
        0.5
        0.5
        0.5
        0.5
        0.5
      </DataArray>
    </PointData>
    <Points>
      <DataArray type="Float64" NumberOfComponents="3" format="ascii">
        -0.913172 -0.913172 -0.913172
        0.155979 -0.602013 -0.602013
        2 -0.668116 -0.668116
        3.84402 -0.602013 -0.602013
        4.91317 -0.913172 -0.913172
        -0.602013 0.155979 -0.602013
        0.473114 0.473114 -0.280696
        2 0.425876 -0.30806
        3.52689 0.473114 -0.280696
        4.60201 0.155979 -0.602013
        -0.668116 2 -0.668116
        0.425876 2 -0.30806
        2 2 -0.356907
        3.57412 2 -0.30806
        4.66812 2 -0.668116
        -0.602013 3.84402 -0.602013
        0.473114 3.52689 -0.280696
        2 3.57412 -0.30806
        3.52689 3.52689 -0.280696
        4.60201 3.84402 -0.602013
        -0.913172 4.91317 -0.913172
        0.155979 4.60201 -0.602013
        2 4.66812 -0.668116
        3.84402 4.60201 -0.602013
        4.91317 4.91317 -0.913172
        -0.602013 -0.602013 0.155979
        0.473114 -0.280696 0.473114
        2 -0.30806 0.425876
        3.52689 -0.280696 0.473114
        4.60201 -0.602013 0.155979
        -0.280696 0.473114 0.473114
        0.812995 0.812995 0.812995
        2 0.783908 0.783908
        3.18701 0.812995 0.812995
        4.2807 0.473114 0.473114
        -0.30806 2 0.425876
        0.783908 2 0.783908
        2 2 0.772374
        3.21609 2 0.783908
        4.30806 2 0.425876
        -0.280696 3.52689 0.473114
        0.812995 3.18701 0.812995
        2 3.21609 0.783908
        3.18701 3.18701 0.812995
        4.2807 3.52689 0.473114
        -0.602013 4.60201 0.155979
        0.473114 4.2807 0.473114
        2 4.30806 0.425876
        3.52689 4.2807 0.473114
        4.60201 4.60201 0.155979
        -0.668116 -0.668116 2
        0.425876 -0.30806 2
        2 -0.356907 2
        3.57412 -0.30806 2
        4.66812 -0.668116 2
        -0.30806 0.425876 2
        0.783908 0.783908 2
        2 0.772374 2
        3.21609 0.783908 2
        4.30806 0.425876 2
        -0.356907 2 2
        0.772374 2 2
        2 2 2
        3.22763 2 2
        4.35691 2 2
        -0.30806 3.57412 2
        0.783908 3.21609 2
        2 3.22763 2
        3.21609 3.21609 2
        4.30806 3.57412 2
        -0.668116 4.66812 2
        0.425876 4.30806 2
        2 4.35691 2
        3.57412 4.30806 2
        4.66812 4.66812 2
        -0.602013 -0.602013 3.84402
        0.473114 -0.280696 3.52689
        2 -0.30806 3.57412
        3.52689 -0.280696 3.52689
        4.60201 -0.602013 3.84402
        -0.280696 0.473114 3.52689
        0.812995 0.812995 3.18701
        2 0.783908 3.21609
        3.18701 0.812995 3.18701
        4.2807 0.473114 3.52689
        -0.30806 2 3.57412
        0.783908 2 3.21609
        2 2 3.22763
        3.21609 2 3.21609
        4.30806 2 3.57412
        -0.280696 3.52689 3.52689
        0.812995 3.18701 3.18701
        2 3.21609 3.21609
        3.18701 3.18701 3.18701
        4.2807 3.52689 3.52689
        -0.602013 4.60201 3.84402
        0.473114 4.2807 3.52689
        2 4.30806 3.57412
        3.52689 4.2807 3.52689
        4.60201 4.60201 3.84402
        -0.913172 -0.913172 4.91317
        0.155979 -0.602013 4.60201
        2 -0.668116 4.66812
        3.84402 -0.602013 4.60201
        4.91317 -0.913172 4.91317
        -0.602013 0.155979 4.60201
        0.473114 0.473114 4.2807
        2 0.425876 4.30806
        3.52689 0.473114 4.2807
        4.60201 0.155979 4.60201
        -0.668116 2 4.66812
        0.425876 2 4.30806
        2 2 4.35691
        3.57412 2 4.30806
        4.66812 2 4.66812
        -0.602013 3.84402 4.60201
        0.473114 3.52689 4.2807
        2 3.57412 4.30806
        3.52689 3.52689 4.2807
        4.60201 3.84402 4.60201
        -0.913172 4.91317 4.91317
        0.155979 4.60201 4.60201
        2 4.66812 4.66812
        3.84402 4.60201 4.60201
        4.91317 4.91317 4.91317
      </DataArray>
    </Points>
    <Cells>
      <DataArray type="Int32" Name="connectivity" format="ascii"/>
      <DataArray type="Int32" Name="offsets" format="ascii"/>
      <DataArray type="UInt8" Name="types" format="ascii"/>
    </Cells>
  </Piece>
  </UnstructuredGrid>
</VTKFile>
