<VTKFile type="UnstructuredGrid" version="0.1">
  <UnstructuredGrid>
  <Piece NumberOfPoints="125" NumberOfCells="0">
    <PointData Scalars="Radius">
      <DataArray type="Float64" Name="Radius" format="ascii">
        0.5
        0.5
        0.5
        0.5
        0.5
        0.5
        0.5
        0.5
        0.5
        0.5
        0.5
        0.5
        0.5
        0.5
        0.5
        0.5
        0.5
        0.5
        0.5
        0.5
        0.5
        0.5
        0.5
        0.5
        0.5
        0.5
        0.5
        0.5
        0.5
        0.5
        0.5
        0.5
        0.5
        0.5
        0.5
        0.5
        0.5
        0.5
        0.5
        0.5
        0.5
        0.5
        0.5
        0.5
        0.5
        0.5
        0.5
        0.5
        0.5
        0.5
        0.5
        0.5
        0.5
        0.5
        0.5
        0.5
        0.5
        0.5
        0.5
        0.5
        0.5
        0.5
        0.5
        0.5
        0.5
        0.5
        0.5
        0.5
        0.5
        0.5
        0.5
        0.5
        0.5
        0.5
        0.5
        0.5
        0.5
        0.5
        0.5
        0.5
        0.5
        0.5
        0.5
        0.5
        0.5
        0.5
        0.5
        0.5
        0.5
        0.5
        0.5
        0.5
        0.5
        0.5
        0.5
        0.5
        0.5
        0.5
        0.5
        0.5
        0.5
        0.5
        0.5
        0.5
        0.5
        0.5
        0.5
        0.5
        0.5
        0.5
        0.5
        0.5
        0.5
        0.5
        0.5
        0.5
        0.5
        0.5
        0.5
        0.5
        0.5
        0.5
        0.5
        0.5
        0.5
      </DataArray>
    </PointData>
    <Points>
      <DataArray type="Float64" NumberOfComponents="3" format="ascii">
        -0.941267 -0.941267 -0.941267
        0.13248 -0.606614 -0.606614
        2 -0.6784 -0.6784
        3.86752 -0.606614 -0.606614
        4.94127 -0.941267 -0.941267
        -0.606614 0.13248 -0.606614
        0.485169 0.485169 -0.287664
        2 0.430081 -0.300949
        3.51483 0.485169 -0.287664
        4.60661 0.13248 -0.606614
        -0.6784 2 -0.6784
        0.430081 2 -0.300949
        2 2 -0.342351
        3.56992 2 -0.300949
        4.6784 2 -0.6784
        -0.606614 3.86752 -0.606614
        0.485169 3.51483 -0.287664
        2 3.56992 -0.300949
        3.51483 3.51483 -0.287664
        4.60661 3.86752 -0.606614
        -0.941267 4.94127 -0.941267
        0.13248 4.60661 -0.606614
        2 4.6784 -0.6784
        3.86752 4.60661 -0.606614
        4.94127 4.94127 -0.941267
        -0.606614 -0.606614 0.13248
        0.485169 -0.287664 0.485169
        2 -0.300949 0.430081
        3.51483 -0.287664 0.485169
        4.60661 -0.606614 0.13248
        -0.287664 0.485169 0.485169
        0.83784 0.83784 0.83784
        2 0.808056 0.808056
        3.16216 0.83784 0.83784
        4.28766 0.485169 0.485169
        -0.300949 2 0.430081
        0.808056 2 0.808056
        2 2 0.795467
        3.19194 2 0.808056
        4.30095 2 0.430081
        -0.287664 3.51483 0.485169
        0.83784 3.16216 0.83784
        2 3.19194 0.808056
        3.16216 3.16216 0.83784
        4.28766 3.51483 0.485169
        -0.606614 4.60661 0.13248
        0.485169 4.28766 0.485169
        2 4.30095 0.430081
        3.51483 4.28766 0.485169
        4.60661 4.60661 0.13248
        -0.6784 -0.6784 2
        0.430081 -0.300949 2
        2 -0.342351 2
        3.56992 -0.300949 2
        4.6784 -0.6784 2
        -0.300949 0.430081 2
        0.808056 0.808056 2
        2 0.795467 2
        3.19194 0.808056 2
        4.30095 0.430081 2
        -0.342351 2 2
        0.795467 2 2
        2 2 2
        3.20453 2 2
        4.34235 2 2
        -0.300949 3.56992 2
        0.808056 3.19194 2
        2 3.20453 2
        3.19194 3.19194 2
        4.30095 3.56992 2
        -0.6784 4.6784 2
        0.430081 4.30095 2
        2 4.34235 2
        3.56992 4.30095 2
        4.6784 4.6784 2
        -0.606614 -0.606614 3.86752
        0.485169 -0.287664 3.51483
        2 -0.300949 3.56992
        3.51483 -0.287664 3.51483
        4.60661 -0.606614 3.86752
        -0.287664 0.485169 3.51483
        0.83784 0.83784 3.16216
        2 0.808056 3.19194
        3.16216 0.83784 3.16216
        4.28766 0.485169 3.51483
        -0.300949 2 3.56992
        0.808056 2 3.19194
        2 2 3.20453
        3.19194 2 3.19194
        4.30095 2 3.56992
        -0.287664 3.51483 3.51483
        0.83784 3.16216 3.16216
        2 3.19194 3.19194
        3.16216 3.16216 3.16216
        4.28766 3.51483 3.51483
        -0.606614 4.60661 3.86752
        0.485169 4.28766 3.51483
        2 4.30095 3.56992
        3.51483 4.28766 3.51483
        4.60661 4.60661 3.86752
        -0.941267 -0.941267 4.94127
        0.13248 -0.606614 4.60661
        2 -0.6784 4.6784
        3.86752 -0.606614 4.60661
        4.94127 -0.941267 4.94127
        -0.606614 0.13248 4.60661
        0.485169 0.485169 4.28766
        2 0.430081 4.30095
        3.51483 0.485169 4.28766
        4.60661 0.13248 4.60661
        -0.6784 2 4.6784
        0.430081 2 4.30095
        2 2 4.34235
        3.56992 2 4.30095
        4.6784 2 4.6784
        -0.606614 3.86752 4.60661
        0.485169 3.51483 4.28766
        2 3.56992 4.30095
        3.51483 3.51483 4.28766
        4.60661 3.86752 4.60661
        -0.941267 4.94127 4.94127
        0.13248 4.60661 4.60661
        2 4.6784 4.6784
        3.86752 4.60661 4.60661
        4.94127 4.94127 4.94127
      </DataArray>
    </Points>
    <Cells>
      <DataArray type="Int32" Name="connectivity" format="ascii"/>
      <DataArray type="Int32" Name="offsets" format="ascii"/>
      <DataArray type="UInt8" Name="types" format="ascii"/>
    </Cells>
  </Piece>
  </UnstructuredGrid>
</VTKFile>
