<VTKFile type="UnstructuredGrid" version="0.1">
  <UnstructuredGrid>
  <Piece NumberOfPoints="125" NumberOfCells="0">
    <PointData Scalars="Radius">
      <DataArray type="Float64" Name="Radius" format="ascii">
        0.5
        0.5
        0.5
        0.5
        0.5
        0.5
        0.5
        0.5
        0.5
        0.5
        0.5
        0.5
        0.5
        0.5
        0.5
        0.5
        0.5
        0.5
        0.5
        0.5
        0.5
        0.5
        0.5
        0.5
        0.5
        0.5
        0.5
        0.5
        0.5
        0.5
        0.5
        0.5
        0.5
        0.5
        0.5
        0.5
        0.5
        0.5
        0.5
        0.5
        0.5
        0.5
        0.5
        0.5
        0.5
        0.5
        0.5
        0.5
        0.5
        0.5
        0.5
        0.5
        0.5
        0.5
        0.5
        0.5
        0.5
        0.5
        0.5
        0.5
        0.5
        0.5
        0.5
        0.5
        0.5
        0.5
        0.5
        0.5
        0.5
        0.5
        0.5
        0.5
        0.5
        0.5
        0.5
        0.5
        0.5
        0.5
        0.5
        0.5
        0.5
        0.5
        0.5
        0.5
        0.5
        0.5
        0.5
        0.5
        0.5
        0.5
        0.5
        0.5
        0.5
        0.5
        0.5
        0.5
        0.5
        0.5
        0.5
        0.5
        0.5
        0.5
        0.5
        0.5
        0.5
        0.5
        0.5
        0.5
        0.5
        0.5
        0.5
        0.5
        0.5
        0.5
        0.5
        0.5
        0.5
        0.5
        0.5
        0.5
        0.5
        0.5
        0.5
        0.5
        0.5
      </DataArray>
    </PointData>
    <Points>
      <DataArray type="Float64" NumberOfComponents="3" format="ascii">
        -0.0573163 -0.0573163 -0.0573163
        0.989797 -0.0529902 -0.0529902
        2 -0.0527687 -0.0527687
        3.0102 -0.0529902 -0.0529902
        4.05732 -0.0573163 -0.0573163
        -0.0529902 0.989797 -0.0529902
        0.990815 0.990815 -0.0477705
        2 0.99084 -0.0474911
        3.00919 0.990815 -0.0477705
        4.05299 0.989797 -0.0529902
        -0.0527687 2 -0.0527687
        0.99084 2 -0.0474911
        2 2 -0.0472083
        3.00916 2 -0.0474911
        4.05277 2 -0.0527687
        -0.0529902 3.0102 -0.0529902
        0.990815 3.00919 -0.0477705
        2 3.00916 -0.0474911
        3.00919 3.00919 -0.0477705
        4.05299 3.0102 -0.0529902
        -0.0573163 4.05732 -0.0573163
        0.989797 4.05299 -0.0529902
        2 4.05277 -0.0527687
        3.0102 4.05299 -0.0529902
        4.05732 4.05732 -0.0573163
        -0.0529902 -0.0529902 0.989797
        0.990815 -0.0477705 0.990815
        2 -0.0474911 0.99084
        3.00919 -0.0477705 0.990815
        4.05299 -0.0529902 0.989797
        -0.0477705 0.990815 0.990815
        0.992087 0.992087 0.992087
        2 0.992127 0.992127
        3.00791 0.992087 0.992087
        4.04777 0.990815 0.990815
        -0.0474911 2 0.99084
        0.992127 2 0.992127
        2 2 0.992153
        3.00787 2 0.992127
        4.04749 2 0.99084
        -0.0477705 3.00919 0.990815
        0.992087 3.00791 0.992087
        2 3.00787 0.992127
        3.00791 3.00791 0.992087
        4.04777 3.00919 0.990815
        -0.0529902 4.05299 0.989797
        0.990815 4.04777 0.990815
        2 4.04749 0.99084
        3.00919 4.04777 0.990815
        4.05299 4.05299 0.989797
        -0.0527687 -0.0527687 2
        0.99084 -0.0474911 2
        2 -0.0472083 2
        3.00916 -0.0474911 2
        4.05277 -0.0527687 2
        -0.0474911 0.99084 2
        0.992127 0.992127 2
        2 0.992153 2
        3.00787 0.992127 2
        4.04749 0.99084 2
        -0.0472083 2 2
        0.992153 2 2
        2 2 2
        3.00785 2 2
        4.04721 2 2
        -0.0474911 3.00916 2
        0.992127 3.00787 2
        2 3.00785 2
        3.00787 3.00787 2
        4.04749 3.00916 2
        -0.0527687 4.05277 2
        0.99084 4.04749 2
        2 4.04721 2
        3.00916 4.04749 2
        4.05277 4.05277 2
        -0.0529902 -0.0529902 3.0102
        0.990815 -0.0477705 3.00919
        2 -0.0474911 3.00916
        3.00919 -0.0477705 3.00919
        4.05299 -0.0529902 3.0102
        -0.0477705 0.990815 3.00919
        0.992087 0.992087 3.00791
        2 0.992127 3.00787
        3.00791 0.992087 3.00791
        4.04777 0.990815 3.00919
        -0.0474911 2 3.00916
        0.992127 2 3.00787
        2 2 3.00785
        3.00787 2 3.00787
        4.04749 2 3.00916
        -0.0477705 3.00919 3.00919
        0.992087 3.00791 3.00791
        2 3.00787 3.00787
        3.00791 3.00791 3.00791
        4.04777 3.00919 3.00919
        -0.0529902 4.05299 3.0102
        0.990815 4.04777 3.00919
        2 4.04749 3.00916
        3.00919 4.04777 3.00919
        4.05299 4.05299 3.0102
        -0.0573163 -0.0573163 4.05732
        0.989797 -0.0529902 4.05299
        2 -0.0527687 4.05277
        3.0102 -0.0529902 4.05299
        4.05732 -0.0573163 4.05732
        -0.0529902 0.989797 4.05299
        0.990815 0.990815 4.04777
        2 0.99084 4.04749
        3.00919 0.990815 4.04777
        4.05299 0.989797 4.05299
        -0.0527687 2 4.05277
        0.99084 2 4.04749
        2 2 4.04721
        3.00916 2 4.04749
        4.05277 2 4.05277
        -0.0529902 3.0102 4.05299
        0.990815 3.00919 4.04777
        2 3.00916 4.04749
        3.00919 3.00919 4.04777
        4.05299 3.0102 4.05299
        -0.0573163 4.05732 4.05732
        0.989797 4.05299 4.05299
        2 4.05277 4.05277
        3.0102 4.05299 4.05299
        4.05732 4.05732 4.05732
      </DataArray>
    </Points>
    <Cells>
      <DataArray type="Int32" Name="connectivity" format="ascii"/>
      <DataArray type="Int32" Name="offsets" format="ascii"/>
      <DataArray type="UInt8" Name="types" format="ascii"/>
    </Cells>
  </Piece>
  </UnstructuredGrid>
</VTKFile>
