<VTKFile type="UnstructuredGrid" version="0.1">
  <UnstructuredGrid>
  <Piece NumberOfPoints="125" NumberOfCells="0">
    <PointData Scalars="Radius">
      <DataArray type="Float64" Name="Radius" format="ascii">
        0.5
        0.5
        0.5
        0.5
        0.5
        0.5
        0.5
        0.5
        0.5
        0.5
        0.5
        0.5
        0.5
        0.5
        0.5
        0.5
        0.5
        0.5
        0.5
        0.5
        0.5
        0.5
        0.5
        0.5
        0.5
        0.5
        0.5
        0.5
        0.5
        0.5
        0.5
        0.5
        0.5
        0.5
        0.5
        0.5
        0.5
        0.5
        0.5
        0.5
        0.5
        0.5
        0.5
        0.5
        0.5
        0.5
        0.5
        0.5
        0.5
        0.5
        0.5
        0.5
        0.5
        0.5
        0.5
        0.5
        0.5
        0.5
        0.5
        0.5
        0.5
        0.5
        0.5
        0.5
        0.5
        0.5
        0.5
        0.5
        0.5
        0.5
        0.5
        0.5
        0.5
        0.5
        0.5
        0.5
        0.5
        0.5
        0.5
        0.5
        0.5
        0.5
        0.5
        0.5
        0.5
        0.5
        0.5
        0.5
        0.5
        0.5
        0.5
        0.5
        0.5
        0.5
        0.5
        0.5
        0.5
        0.5
        0.5
        0.5
        0.5
        0.5
        0.5
        0.5
        0.5
        0.5
        0.5
        0.5
        0.5
        0.5
        0.5
        0.5
        0.5
        0.5
        0.5
        0.5
        0.5
        0.5
        0.5
        0.5
        0.5
        0.5
        0.5
        0.5
        0.5
      </DataArray>
    </PointData>
    <Points>
      <DataArray type="Float64" NumberOfComponents="3" format="ascii">
        -0.552548 -0.552548 -0.552548
        0.611353 -0.489485 -0.489485
        2 -0.49184 -0.49184
        3.38865 -0.489485 -0.489485
        4.55255 -0.552548 -0.552548
        -0.489485 0.611353 -0.489485
        0.664546 0.664546 -0.413091
        2 0.667182 -0.415843
        3.33545 0.664546 -0.413091
        4.48948 0.611353 -0.489485
        -0.49184 2 -0.49184
        0.667182 2 -0.415843
        2 2 -0.418421
        3.33282 2 -0.415843
        4.49184 2 -0.49184
        -0.489485 3.38865 -0.489485
        0.664546 3.33545 -0.413091
        2 3.33282 -0.415843
        3.33545 3.33545 -0.413091
        4.48948 3.38865 -0.489485
        -0.552548 4.55255 -0.552548
        0.611353 4.48948 -0.489485
        2 4.49184 -0.49184
        3.38865 4.48948 -0.489485
        4.55255 4.55255 -0.552548
        -0.489485 -0.489485 0.611353
        0.664546 -0.413091 0.664546
        2 -0.415843 0.667182
        3.33545 -0.413091 0.664546
        4.48948 -0.489485 0.611353
        -0.413091 0.664546 0.664546
        0.73551 0.73551 0.73551
        2 0.738029 0.738029
        3.26449 0.73551 0.73551
        4.41309 0.664546 0.664546
        -0.415843 2 0.667182
        0.738029 2 0.738029
        2 2 0.740521
        3.26197 2 0.738029
        4.41584 2 0.667182
        -0.413091 3.33545 0.664546
        0.73551 3.26449 0.73551
        2 3.26197 0.738029
        3.26449 3.26449 0.73551
        4.41309 3.33545 0.664546
        -0.489485 4.48948 0.611353
        0.664546 4.41309 0.664546
        2 4.41584 0.667182
        3.33545 4.41309 0.664546
        4.48948 4.48948 0.611353
        -0.49184 -0.49184 2
        0.667182 -0.415843 2
        2 -0.418421 2
        3.33282 -0.415843 2
        4.49184 -0.49184 2
        -0.415843 0.667182 2
        0.738029 0.738029 2
        2 0.740521 2
        3.26197 0.738029 2
        4.41584 0.667182 2
        -0.418421 2 2
        0.740521 2 2
        2 2 2
        3.25948 2 2
        4.41842 2 2
        -0.415843 3.33282 2
        0.738029 3.26197 2
        2 3.25948 2
        3.26197 3.26197 2
        4.41584 3.33282 2
        -0.49184 4.49184 2
        0.667182 4.41584 2
        2 4.41842 2
        3.33282 4.41584 2
        4.49184 4.49184 2
        -0.489485 -0.489485 3.38865
        0.664546 -0.413091 3.33545
        2 -0.415843 3.33282
        3.33545 -0.413091 3.33545
        4.48948 -0.489485 3.38865
        -0.413091 0.664546 3.33545
        0.73551 0.73551 3.26449
        2 0.738029 3.26197
        3.26449 0.73551 3.26449
        4.41309 0.664546 3.33545
        -0.415843 2 3.33282
        0.738029 2 3.26197
        2 2 3.25948
        3.26197 2 3.26197
        4.41584 2 3.33282
        -0.413091 3.33545 3.33545
        0.73551 3.26449 3.26449
        2 3.26197 3.26197
        3.26449 3.26449 3.26449
        4.41309 3.33545 3.33545
        -0.489485 4.48948 3.38865
        0.664546 4.41309 3.33545
        2 4.41584 3.33282
        3.33545 4.41309 3.33545
        4.48948 4.48948 3.38865
        -0.552548 -0.552548 4.55255
        0.611353 -0.489485 4.48948
        2 -0.49184 4.49184
        3.38865 -0.489485 4.48948
        4.55255 -0.552548 4.55255
        -0.489485 0.611353 4.48948
        0.664546 0.664546 4.41309
        2 0.667182 4.41584
        3.33545 0.664546 4.41309
        4.48948 0.611353 4.48948
        -0.49184 2 4.49184
        0.667182 2 4.41584
        2 2 4.41842
        3.33282 2 4.41584
        4.49184 2 4.49184
        -0.489485 3.38865 4.48948
        0.664546 3.33545 4.41309
        2 3.33282 4.41584
        3.33545 3.33545 4.41309
        4.48948 3.38865 4.48948
        -0.552548 4.55255 4.55255
        0.611353 4.48948 4.48948
        2 4.49184 4.49184
        3.38865 4.48948 4.48948
        4.55255 4.55255 4.55255
      </DataArray>
    </Points>
    <Cells>
      <DataArray type="Int32" Name="connectivity" format="ascii"/>
      <DataArray type="Int32" Name="offsets" format="ascii"/>
      <DataArray type="UInt8" Name="types" format="ascii"/>
    </Cells>
  </Piece>
  </UnstructuredGrid>
</VTKFile>
