<VTKFile type="UnstructuredGrid" version="0.1">
  <UnstructuredGrid>
  <Piece NumberOfPoints="125" NumberOfCells="0">
    <PointData Scalars="Radius">
      <DataArray type="Float64" Name="Radius" format="ascii">
        0.5
        0.5
        0.5
        0.5
        0.5
        0.5
        0.5
        0.5
        0.5
        0.5
        0.5
        0.5
        0.5
        0.5
        0.5
        0.5
        0.5
        0.5
        0.5
        0.5
        0.5
        0.5
        0.5
        0.5
        0.5
        0.5
        0.5
        0.5
        0.5
        0.5
        0.5
        0.5
        0.5
        0.5
        0.5
        0.5
        0.5
        0.5
        0.5
        0.5
        0.5
        0.5
        0.5
        0.5
        0.5
        0.5
        0.5
        0.5
        0.5
        0.5
        0.5
        0.5
        0.5
        0.5
        0.5
        0.5
        0.5
        0.5
        0.5
        0.5
        0.5
        0.5
        0.5
        0.5
        0.5
        0.5
        0.5
        0.5
        0.5
        0.5
        0.5
        0.5
        0.5
        0.5
        0.5
        0.5
        0.5
        0.5
        0.5
        0.5
        0.5
        0.5
        0.5
        0.5
        0.5
        0.5
        0.5
        0.5
        0.5
        0.5
        0.5
        0.5
        0.5
        0.5
        0.5
        0.5
        0.5
        0.5
        0.5
        0.5
        0.5
        0.5
        0.5
        0.5
        0.5
        0.5
        0.5
        0.5
        0.5
        0.5
        0.5
        0.5
        0.5
        0.5
        0.5
        0.5
        0.5
        0.5
        0.5
        0.5
        0.5
        0.5
        0.5
        0.5
        0.5
      </DataArray>
    </PointData>
    <Points>
      <DataArray type="Float64" NumberOfComponents="3" format="ascii">
        -1.07187 -1.07187 -1.07187
        0.170289 -0.687157 -0.687157
        2.0001 -0.658223 -0.658223
        3.79844 -0.674817 -0.674817
        5.12858 -1.12858 -1.12858
        -0.687157 0.170289 -0.687157
        0.545979 0.545979 -0.26931
        2.00003 0.587006 -0.257715
        3.45366 0.546337 -0.269059
        4.67482 0.201563 -0.674817
        -0.658223 2.0001 -0.658223
        0.587006 2.00003 -0.257715
        2 2 -0.0811279
        3.41301 2 -0.257717
        4.65822 2 -0.658216
        -0.674817 3.79844 -0.674817
        0.546337 3.45366 -0.269059
        2 3.41301 -0.257717
        3.45366 3.45366 -0.269059
        4.67482 3.79844 -0.674817
        -1.12858 5.12858 -1.12858
        0.201563 4.67482 -0.674817
        2 4.65822 -0.658216
        3.79844 4.67482 -0.674817
        5.12858 5.12858 -1.12858
        -0.687157 -0.687157 0.170289
        0.545979 -0.26931 0.545979
        2.00003 -0.257715 0.587006
        3.45366 -0.269059 0.546337
        4.67482 -0.674817 0.201563
        -0.26931 0.545979 0.545979
        0.930793 0.930793 0.930793
        2.00001 0.954689 0.954689
        3.06923 0.930766 0.930766
        4.26906 0.546337 0.546337
        -0.257715 2.00003 0.587006
        0.954689 2.00001 0.954689
        2 2 0.992446
        3.04531 2 0.954688
        4.25772 2 0.586993
        -0.269059 3.45366 0.546337
        0.930766 3.06923 0.930766
        2 3.04531 0.954688
        3.06923 3.06923 0.930766
        4.26906 3.45366 0.546337
        -0.674817 4.67482 0.201563
        0.546337 4.26906 0.546337
        2 4.25772 0.586993
        3.45366 4.26906 0.546337
        4.67482 4.67482 0.201563
        -0.658223 -0.658223 2.0001
        0.587006 -0.257715 2.00003
        2 -0.0811279 2
        3.41301 -0.257717 2
        4.65822 -0.658216 2
        -0.257715 0.587006 2.00003
        0.954689 0.954689 2.00001
        2 0.992446 2
        3.04531 0.954688 2
        4.25772 0.586993 2
        -0.0811279 2 2
        0.992446 2 2
        2 2 2
        3.00755 2 2
        4.08113 2 2
        -0.257717 3.41301 2
        0.954688 3.04531 2
        2 3.00755 2
        3.04531 3.04531 2
        4.25772 3.41301 2
        -0.658216 4.65822 2
        0.586993 4.25772 2
        2 4.08113 2
        3.41301 4.25772 2
        4.65822 4.65822 2
        -0.674817 -0.674817 3.79844
        0.546337 -0.269059 3.45366
        2 -0.257717 3.41301
        3.45366 -0.269059 3.45366
        4.67482 -0.674817 3.79844
        -0.269059 0.546337 3.45366
        0.930766 0.930766 3.06923
        2 0.954688 3.04531
        3.06923 0.930766 3.06923
        4.26906 0.546337 3.45366
        -0.257717 2 3.41301
        0.954688 2 3.04531
        2 2 3.00755
        3.04531 2 3.04531
        4.25772 2 3.41301
        -0.269059 3.45366 3.45366
        0.930766 3.06923 3.06923
        2 3.04531 3.04531
        3.06923 3.06923 3.06923
        4.26906 3.45366 3.45366
        -0.674817 4.67482 3.79844
        0.546337 4.26906 3.45366
        2 4.25772 3.41301
        3.45366 4.26906 3.45366
        4.67482 4.67482 3.79844
        -1.12858 -1.12858 5.12858
        0.201563 -0.674817 4.67482
        2 -0.658216 4.65822
        3.79844 -0.674817 4.67482
        5.12858 -1.12858 5.12858
        -0.674817 0.201563 4.67482
        0.546337 0.546337 4.26906
        2 0.586993 4.25772
        3.45366 0.546337 4.26906
        4.67482 0.201563 4.67482
        -0.658216 2 4.65822
        0.586993 2 4.25772
        2 2 4.08113
        3.41301 2 4.25772
        4.65822 2 4.65822
        -0.674817 3.79844 4.67482
        0.546337 3.45366 4.26906
        2 3.41301 4.25772
        3.45366 3.45366 4.26906
        4.67482 3.79844 4.67482
        -1.12858 5.12858 5.12858
        0.201563 4.67482 4.67482
        2 4.65822 4.65822
        3.79844 4.67482 4.67482
        5.12858 5.12858 5.12858
      </DataArray>
    </Points>
    <Cells>
      <DataArray type="Int32" Name="connectivity" format="ascii"/>
      <DataArray type="Int32" Name="offsets" format="ascii"/>
      <DataArray type="UInt8" Name="types" format="ascii"/>
    </Cells>
  </Piece>
  </UnstructuredGrid>
</VTKFile>
