<VTKFile type="UnstructuredGrid" version="0.1">
  <UnstructuredGrid>
  <Piece NumberOfPoints="125" NumberOfCells="0">
    <PointData Scalars="Radius">
      <DataArray type="Float64" Name="Radius" format="ascii">
        0.5
        0.5
        0.5
        0.5
        0.5
        0.5
        0.5
        0.5
        0.5
        0.5
        0.5
        0.5
        0.5
        0.5
        0.5
        0.5
        0.5
        0.5
        0.5
        0.5
        0.5
        0.5
        0.5
        0.5
        0.5
        0.5
        0.5
        0.5
        0.5
        0.5
        0.5
        0.5
        0.5
        0.5
        0.5
        0.5
        0.5
        0.5
        0.5
        0.5
        0.5
        0.5
        0.5
        0.5
        0.5
        0.5
        0.5
        0.5
        0.5
        0.5
        0.5
        0.5
        0.5
        0.5
        0.5
        0.5
        0.5
        0.5
        0.5
        0.5
        0.5
        0.5
        0.5
        0.5
        0.5
        0.5
        0.5
        0.5
        0.5
        0.5
        0.5
        0.5
        0.5
        0.5
        0.5
        0.5
        0.5
        0.5
        0.5
        0.5
        0.5
        0.5
        0.5
        0.5
        0.5
        0.5
        0.5
        0.5
        0.5
        0.5
        0.5
        0.5
        0.5
        0.5
        0.5
        0.5
        0.5
        0.5
        0.5
        0.5
        0.5
        0.5
        0.5
        0.5
        0.5
        0.5
        0.5
        0.5
        0.5
        0.5
        0.5
        0.5
        0.5
        0.5
        0.5
        0.5
        0.5
        0.5
        0.5
        0.5
        0.5
        0.5
        0.5
        0.5
        0.5
      </DataArray>
    </PointData>
    <Points>
      <DataArray type="Float64" NumberOfComponents="3" format="ascii">
        -1.01476 -1.01476 -1.01476
        0.128103 -0.64349 -0.64349
        2 -0.695057 -0.695057
        3.87125 -0.643275 -0.643275
        5.01588 -1.01588 -1.01588
        -0.64349 0.128103 -0.64349
        0.522133 0.522133 -0.307672
        2 0.481702 -0.300299
        3.47785 0.522149 -0.307665
        4.64327 0.12875 -0.643275
        -0.695057 2 -0.695057
        0.481702 2 -0.300299
        2 2 -0.275987
        3.5183 2 -0.300299
        4.69506 2 -0.695057
        -0.643275 3.87125 -0.643275
        0.522149 3.47785 -0.307665
        2 3.5183 -0.300299
        3.47785 3.47785 -0.307665
        4.64327 3.87125 -0.643275
        -1.01588 5.01588 -1.01588
        0.12875 4.64327 -0.643275
        2 4.69506 -0.695057
        3.87125 4.64327 -0.643275
        5.01588 5.01588 -1.01588
        -0.64349 -0.64349 0.128103
        0.522133 -0.307672 0.522133
        2 -0.300299 0.481702
        3.47785 -0.307665 0.522149
        4.64327 -0.643275 0.12875
        -0.307672 0.522133 0.522133
        0.908629 0.908629 0.908629
        2 0.888061 0.888061
        3.09137 0.908629 0.908629
        4.30766 0.522149 0.522149
        -0.300299 2 0.481702
        0.888061 2 0.888061
        2 2 0.884233
        3.11194 2 0.888061
        4.3003 2 0.481702
        -0.307665 3.47785 0.522149
        0.908629 3.09137 0.908629
        2 3.11194 0.888061
        3.09137 3.09137 0.908629
        4.30766 3.47785 0.522149
        -0.643275 4.64327 0.12875
        0.522149 4.30766 0.522149
        2 4.3003 0.481702
        3.47785 4.30766 0.522149
        4.64327 4.64327 0.12875
        -0.695057 -0.695057 2
        0.481702 -0.300299 2
        2 -0.275987 2
        3.5183 -0.300299 2
        4.69506 -0.695057 2
        -0.300299 0.481702 2
        0.888061 0.888061 2
        2 0.884233 2
        3.11194 0.888061 2
        4.3003 0.481702 2
        -0.275987 2 2
        0.884233 2 2
        2 2 2
        3.11577 2 2
        4.27599 2 2
        -0.300299 3.5183 2
        0.888061 3.11194 2
        2 3.11577 2
        3.11194 3.11194 2
        4.3003 3.5183 2
        -0.695057 4.69506 2
        0.481702 4.3003 2
        2 4.27599 2
        3.5183 4.3003 2
        4.69506 4.69506 2
        -0.643275 -0.643275 3.87125
        0.522149 -0.307665 3.47785
        2 -0.300299 3.5183
        3.47785 -0.307665 3.47785
        4.64327 -0.643275 3.87125
        -0.307665 0.522149 3.47785
        0.908629 0.908629 3.09137
        2 0.888061 3.11194
        3.09137 0.908629 3.09137
        4.30766 0.522149 3.47785
        -0.300299 2 3.5183
        0.888061 2 3.11194
        2 2 3.11577
        3.11194 2 3.11194
        4.3003 2 3.5183
        -0.307665 3.47785 3.47785
        0.908629 3.09137 3.09137
        2 3.11194 3.11194
        3.09137 3.09137 3.09137
        4.30766 3.47785 3.47785
        -0.643275 4.64327 3.87125
        0.522149 4.30766 3.47785
        2 4.3003 3.5183
        3.47785 4.30766 3.47785
        4.64327 4.64327 3.87125
        -1.01588 -1.01588 5.01588
        0.12875 -0.643275 4.64327
        2 -0.695057 4.69506
        3.87125 -0.643275 4.64327
        5.01588 -1.01588 5.01588
        -0.643275 0.12875 4.64327
        0.522149 0.522149 4.30766
        2 0.481702 4.3003
        3.47785 0.522149 4.30766
        4.64327 0.12875 4.64327
        -0.695057 2 4.69506
        0.481702 2 4.3003
        2 2 4.27599
        3.5183 2 4.3003
        4.69506 2 4.69506
        -0.643275 3.87125 4.64327
        0.522149 3.47785 4.30766
        2 3.5183 4.3003
        3.47785 3.47785 4.30766
        4.64327 3.87125 4.64327
        -1.01588 5.01588 5.01588
        0.12875 4.64327 4.64327
        2 4.69506 4.69506
        3.87125 4.64327 4.64327
        5.01588 5.01588 5.01588
      </DataArray>
    </Points>
    <Cells>
      <DataArray type="Int32" Name="connectivity" format="ascii"/>
      <DataArray type="Int32" Name="offsets" format="ascii"/>
      <DataArray type="UInt8" Name="types" format="ascii"/>
    </Cells>
  </Piece>
  </UnstructuredGrid>
</VTKFile>
