<VTKFile type="UnstructuredGrid" version="0.1">
  <UnstructuredGrid>
  <Piece NumberOfPoints="125" NumberOfCells="0">
    <PointData Scalars="Radius">
      <DataArray type="Float64" Name="Radius" format="ascii">
        0.5
        0.5
        0.5
        0.5
        0.5
        0.5
        0.5
        0.5
        0.5
        0.5
        0.5
        0.5
        0.5
        0.5
        0.5
        0.5
        0.5
        0.5
        0.5
        0.5
        0.5
        0.5
        0.5
        0.5
        0.5
        0.5
        0.5
        0.5
        0.5
        0.5
        0.5
        0.5
        0.5
        0.5
        0.5
        0.5
        0.5
        0.5
        0.5
        0.5
        0.5
        0.5
        0.5
        0.5
        0.5
        0.5
        0.5
        0.5
        0.5
        0.5
        0.5
        0.5
        0.5
        0.5
        0.5
        0.5
        0.5
        0.5
        0.5
        0.5
        0.5
        0.5
        0.5
        0.5
        0.5
        0.5
        0.5
        0.5
        0.5
        0.5
        0.5
        0.5
        0.5
        0.5
        0.5
        0.5
        0.5
        0.5
        0.5
        0.5
        0.5
        0.5
        0.5
        0.5
        0.5
        0.5
        0.5
        0.5
        0.5
        0.5
        0.5
        0.5
        0.5
        0.5
        0.5
        0.5
        0.5
        0.5
        0.5
        0.5
        0.5
        0.5
        0.5
        0.5
        0.5
        0.5
        0.5
        0.5
        0.5
        0.5
        0.5
        0.5
        0.5
        0.5
        0.5
        0.5
        0.5
        0.5
        0.5
        0.5
        0.5
        0.5
        0.5
        0.5
        0.5
      </DataArray>
    </PointData>
    <Points>
      <DataArray type="Float64" NumberOfComponents="3" format="ascii">
        -0.635731 -0.635731 -0.635731
        0.466468 -0.542441 -0.542441
        2 -0.55229 -0.55229
        3.53353 -0.542441 -0.542441
        4.63573 -0.635731 -0.635731
        -0.542441 0.466468 -0.542441
        0.562734 0.562734 -0.422361
        2 0.567881 -0.433152
        3.43727 0.562734 -0.422361
        4.54244 0.466468 -0.542441
        -0.55229 2 -0.55229
        0.567881 2 -0.433152
        2 2 -0.441879
        3.43212 2 -0.433152
        4.55229 2 -0.55229
        -0.542441 3.53353 -0.542441
        0.562734 3.43727 -0.422361
        2 3.43212 -0.433152
        3.43727 3.43727 -0.422361
        4.54244 3.53353 -0.542441
        -0.635731 4.63573 -0.635731
        0.466468 4.54244 -0.542441
        2 4.55229 -0.55229
        3.53353 4.54244 -0.542441
        4.63573 4.63573 -0.635731
        -0.542441 -0.542441 0.466468
        0.562734 -0.422361 0.562734
        2 -0.433152 0.567881
        3.43727 -0.422361 0.562734
        4.54244 -0.542441 0.466468
        -0.422361 0.562734 0.562734
        0.689509 0.689509 0.689509
        2 0.693698 0.693698
        3.31049 0.689509 0.689509
        4.42236 0.562734 0.562734
        -0.433152 2 0.567881
        0.693698 2 0.693698
        2 2 0.698478
        3.3063 2 0.693698
        4.43315 2 0.567881
        -0.422361 3.43727 0.562734
        0.689509 3.31049 0.689509
        2 3.3063 0.693698
        3.31049 3.31049 0.689509
        4.42236 3.43727 0.562734
        -0.542441 4.54244 0.466468
        0.562734 4.42236 0.562734
        2 4.43315 0.567881
        3.43727 4.42236 0.562734
        4.54244 4.54244 0.466468
        -0.55229 -0.55229 2
        0.567881 -0.433152 2
        2 -0.441879 2
        3.43212 -0.433152 2
        4.55229 -0.55229 2
        -0.433152 0.567881 2
        0.693698 0.693698 2
        2 0.698478 2
        3.3063 0.693698 2
        4.43315 0.567881 2
        -0.441879 2 2
        0.698478 2 2
        2 2 2
        3.30152 2 2
        4.44188 2 2
        -0.433152 3.43212 2
        0.693698 3.3063 2
        2 3.30152 2
        3.3063 3.3063 2
        4.43315 3.43212 2
        -0.55229 4.55229 2
        0.567881 4.43315 2
        2 4.44188 2
        3.43212 4.43315 2
        4.55229 4.55229 2
        -0.542441 -0.542441 3.53353
        0.562734 -0.422361 3.43727
        2 -0.433152 3.43212
        3.43727 -0.422361 3.43727
        4.54244 -0.542441 3.53353
        -0.422361 0.562734 3.43727
        0.689509 0.689509 3.31049
        2 0.693698 3.3063
        3.31049 0.689509 3.31049
        4.42236 0.562734 3.43727
        -0.433152 2 3.43212
        0.693698 2 3.3063
        2 2 3.30152
        3.3063 2 3.3063
        4.43315 2 3.43212
        -0.422361 3.43727 3.43727
        0.689509 3.31049 3.31049
        2 3.3063 3.3063
        3.31049 3.31049 3.31049
        4.42236 3.43727 3.43727
        -0.542441 4.54244 3.53353
        0.562734 4.42236 3.43727
        2 4.43315 3.43212
        3.43727 4.42236 3.43727
        4.54244 4.54244 3.53353
        -0.635731 -0.635731 4.63573
        0.466468 -0.542441 4.54244
        2 -0.55229 4.55229
        3.53353 -0.542441 4.54244
        4.63573 -0.635731 4.63573
        -0.542441 0.466468 4.54244
        0.562734 0.562734 4.42236
        2 0.567881 4.43315
        3.43727 0.562734 4.42236
        4.54244 0.466468 4.54244
        -0.55229 2 4.55229
        0.567881 2 4.43315
        2 2 4.44188
        3.43212 2 4.43315
        4.55229 2 4.55229
        -0.542441 3.53353 4.54244
        0.562734 3.43727 4.42236
        2 3.43212 4.43315
        3.43727 3.43727 4.42236
        4.54244 3.53353 4.54244
        -0.635731 4.63573 4.63573
        0.466468 4.54244 4.54244
        2 4.55229 4.55229
        3.53353 4.54244 4.54244
        4.63573 4.63573 4.63573
      </DataArray>
    </Points>
    <Cells>
      <DataArray type="Int32" Name="connectivity" format="ascii"/>
      <DataArray type="Int32" Name="offsets" format="ascii"/>
      <DataArray type="UInt8" Name="types" format="ascii"/>
    </Cells>
  </Piece>
  </UnstructuredGrid>
</VTKFile>
