<VTKFile type="UnstructuredGrid" version="0.1">
  <UnstructuredGrid>
  <Piece NumberOfPoints="125" NumberOfCells="0">
    <PointData Scalars="Radius">
      <DataArray type="Float64" Name="Radius" format="ascii">
        0.5
        0.5
        0.5
        0.5
        0.5
        0.5
        0.5
        0.5
        0.5
        0.5
        0.5
        0.5
        0.5
        0.5
        0.5
        0.5
        0.5
        0.5
        0.5
        0.5
        0.5
        0.5
        0.5
        0.5
        0.5
        0.5
        0.5
        0.5
        0.5
        0.5
        0.5
        0.5
        0.5
        0.5
        0.5
        0.5
        0.5
        0.5
        0.5
        0.5
        0.5
        0.5
        0.5
        0.5
        0.5
        0.5
        0.5
        0.5
        0.5
        0.5
        0.5
        0.5
        0.5
        0.5
        0.5
        0.5
        0.5
        0.5
        0.5
        0.5
        0.5
        0.5
        0.5
        0.5
        0.5
        0.5
        0.5
        0.5
        0.5
        0.5
        0.5
        0.5
        0.5
        0.5
        0.5
        0.5
        0.5
        0.5
        0.5
        0.5
        0.5
        0.5
        0.5
        0.5
        0.5
        0.5
        0.5
        0.5
        0.5
        0.5
        0.5
        0.5
        0.5
        0.5
        0.5
        0.5
        0.5
        0.5
        0.5
        0.5
        0.5
        0.5
        0.5
        0.5
        0.5
        0.5
        0.5
        0.5
        0.5
        0.5
        0.5
        0.5
        0.5
        0.5
        0.5
        0.5
        0.5
        0.5
        0.5
        0.5
        0.5
        0.5
        0.5
        0.5
        0.5
      </DataArray>
    </PointData>
    <Points>
      <DataArray type="Float64" NumberOfComponents="3" format="ascii">
        -0.68017 -0.68017 -0.68017
        0.38188 -0.556396 -0.556396
        2 -0.573358 -0.573358
        3.61812 -0.556396 -0.556396
        4.68017 -0.68017 -0.68017
        -0.556396 0.38188 -0.556396
        0.510173 0.510173 -0.393657
        2 0.514594 -0.414589
        3.48983 0.510173 -0.393657
        4.5564 0.38188 -0.556396
        -0.573358 2 -0.573358
        0.514594 2 -0.414589
        2 2 -0.430138
        3.48541 2 -0.414589
        4.57336 2 -0.573358
        -0.556396 3.61812 -0.556396
        0.510173 3.48983 -0.393657
        2 3.48541 -0.414589
        3.48983 3.48983 -0.393657
        4.5564 3.61812 -0.556396
        -0.68017 4.68017 -0.68017
        0.38188 4.5564 -0.556396
        2 4.57336 -0.573358
        3.61812 4.5564 -0.556396
        4.68017 4.68017 -0.68017
        -0.556396 -0.556396 0.38188
        0.510173 -0.393657 0.510173
        2 -0.414589 0.514594
        3.48983 -0.393657 0.510173
        4.5564 -0.556396 0.38188
        -0.393657 0.510173 0.510173
        0.679541 0.679541 0.679541
        2 0.682568 0.682568
        3.32046 0.679541 0.679541
        4.39366 0.510173 0.510173
        -0.414589 2 0.514594
        0.682568 2 0.682568
        2 2 0.687927
        3.31743 2 0.682568
        4.41459 2 0.514594
        -0.393657 3.48983 0.510173
        0.679541 3.32046 0.679541
        2 3.31743 0.682568
        3.32046 3.32046 0.679541
        4.39366 3.48983 0.510173
        -0.556396 4.5564 0.38188
        0.510173 4.39366 0.510173
        2 4.41459 0.514594
        3.48983 4.39366 0.510173
        4.5564 4.5564 0.38188
        -0.573358 -0.573358 2
        0.514594 -0.414589 2
        2 -0.430138 2
        3.48541 -0.414589 2
        4.57336 -0.573358 2
        -0.414589 0.514594 2
        0.682568 0.682568 2
        2 0.687927 2
        3.31743 0.682568 2
        4.41459 0.514594 2
        -0.430138 2 2
        0.687927 2 2
        2 2 2
        3.31207 2 2
        4.43014 2 2
        -0.414589 3.48541 2
        0.682568 3.31743 2
        2 3.31207 2
        3.31743 3.31743 2
        4.41459 3.48541 2
        -0.573358 4.57336 2
        0.514594 4.41459 2
        2 4.43014 2
        3.48541 4.41459 2
        4.57336 4.57336 2
        -0.556396 -0.556396 3.61812
        0.510173 -0.393657 3.48983
        2 -0.414589 3.48541
        3.48983 -0.393657 3.48983
        4.5564 -0.556396 3.61812
        -0.393657 0.510173 3.48983
        0.679541 0.679541 3.32046
        2 0.682568 3.31743
        3.32046 0.679541 3.32046
        4.39366 0.510173 3.48983
        -0.414589 2 3.48541
        0.682568 2 3.31743
        2 2 3.31207
        3.31743 2 3.31743
        4.41459 2 3.48541
        -0.393657 3.48983 3.48983
        0.679541 3.32046 3.32046
        2 3.31743 3.31743
        3.32046 3.32046 3.32046
        4.39366 3.48983 3.48983
        -0.556396 4.5564 3.61812
        0.510173 4.39366 3.48983
        2 4.41459 3.48541
        3.48983 4.39366 3.48983
        4.5564 4.5564 3.61812
        -0.68017 -0.68017 4.68017
        0.38188 -0.556396 4.5564
        2 -0.573358 4.57336
        3.61812 -0.556396 4.5564
        4.68017 -0.68017 4.68017
        -0.556396 0.38188 4.5564
        0.510173 0.510173 4.39366
        2 0.514594 4.41459
        3.48983 0.510173 4.39366
        4.5564 0.38188 4.5564
        -0.573358 2 4.57336
        0.514594 2 4.41459
        2 2 4.43014
        3.48541 2 4.41459
        4.57336 2 4.57336
        -0.556396 3.61812 4.5564
        0.510173 3.48983 4.39366
        2 3.48541 4.41459
        3.48983 3.48983 4.39366
        4.5564 3.61812 4.5564
        -0.68017 4.68017 4.68017
        0.38188 4.5564 4.5564
        2 4.57336 4.57336
        3.61812 4.5564 4.5564
        4.68017 4.68017 4.68017
      </DataArray>
    </Points>
    <Cells>
      <DataArray type="Int32" Name="connectivity" format="ascii"/>
      <DataArray type="Int32" Name="offsets" format="ascii"/>
      <DataArray type="UInt8" Name="types" format="ascii"/>
    </Cells>
  </Piece>
  </UnstructuredGrid>
</VTKFile>
