<VTKFile type="UnstructuredGrid" version="0.1">
  <UnstructuredGrid>
  <Piece NumberOfPoints="125" NumberOfCells="0">
    <PointData Scalars="Radius">
      <DataArray type="Float64" Name="Radius" format="ascii">
        0.5
        0.5
        0.5
        0.5
        0.5
        0.5
        0.5
        0.5
        0.5
        0.5
        0.5
        0.5
        0.5
        0.5
        0.5
        0.5
        0.5
        0.5
        0.5
        0.5
        0.5
        0.5
        0.5
        0.5
        0.5
        0.5
        0.5
        0.5
        0.5
        0.5
        0.5
        0.5
        0.5
        0.5
        0.5
        0.5
        0.5
        0.5
        0.5
        0.5
        0.5
        0.5
        0.5
        0.5
        0.5
        0.5
        0.5
        0.5
        0.5
        0.5
        0.5
        0.5
        0.5
        0.5
        0.5
        0.5
        0.5
        0.5
        0.5
        0.5
        0.5
        0.5
        0.5
        0.5
        0.5
        0.5
        0.5
        0.5
        0.5
        0.5
        0.5
        0.5
        0.5
        0.5
        0.5
        0.5
        0.5
        0.5
        0.5
        0.5
        0.5
        0.5
        0.5
        0.5
        0.5
        0.5
        0.5
        0.5
        0.5
        0.5
        0.5
        0.5
        0.5
        0.5
        0.5
        0.5
        0.5
        0.5
        0.5
        0.5
        0.5
        0.5
        0.5
        0.5
        0.5
        0.5
        0.5
        0.5
        0.5
        0.5
        0.5
        0.5
        0.5
        0.5
        0.5
        0.5
        0.5
        0.5
        0.5
        0.5
        0.5
        0.5
        0.5
        0.5
        0.5
      </DataArray>
    </PointData>
    <Points>
      <DataArray type="Float64" NumberOfComponents="3" format="ascii">
        -0.859901 -0.859901 -0.859901
        0.207459 -0.595009 -0.595009
        2 -0.646369 -0.646369
        3.79254 -0.595009 -0.595009
        4.8599 -0.859901 -0.859901
        -0.595009 0.207459 -0.595009
        0.459796 0.459796 -0.282087
        2 0.432996 -0.330179
        3.5402 0.459796 -0.282087
        4.59501 0.207459 -0.595009
        -0.646369 2 -0.646369
        0.432996 2 -0.330179
        2 2 -0.377601
        3.567 2 -0.330179
        4.64637 2 -0.646369
        -0.595009 3.79254 -0.595009
        0.459796 3.5402 -0.282087
        2 3.567 -0.330179
        3.5402 3.5402 -0.282087
        4.59501 3.79254 -0.595009
        -0.859901 4.8599 -0.859901
        0.207459 4.59501 -0.595009
        2 4.64637 -0.646369
        3.79254 4.59501 -0.595009
        4.8599 4.8599 -0.859901
        -0.595009 -0.595009 0.207459
        0.459796 -0.282087 0.459796
        2 -0.330179 0.432996
        3.5402 -0.282087 0.459796
        4.59501 -0.595009 0.207459
        -0.282087 0.459796 0.459796
        0.768798 0.768798 0.768798
        2 0.745284 0.745284
        3.2312 0.768798 0.768798
        4.28209 0.459796 0.459796
        -0.330179 2 0.432996
        0.745284 2 0.745284
        2 2 0.73808
        3.25472 2 0.745284
        4.33018 2 0.432996
        -0.282087 3.5402 0.459796
        0.768798 3.2312 0.768798
        2 3.25472 0.745284
        3.2312 3.2312 0.768798
        4.28209 3.5402 0.459796
        -0.595009 4.59501 0.207459
        0.459796 4.28209 0.459796
        2 4.33018 0.432996
        3.5402 4.28209 0.459796
        4.59501 4.59501 0.207459
        -0.646369 -0.646369 2
        0.432996 -0.330179 2
        2 -0.377601 2
        3.567 -0.330179 2
        4.64637 -0.646369 2
        -0.330179 0.432996 2
        0.745284 0.745284 2
        2 0.73808 2
        3.25472 0.745284 2
        4.33018 0.432996 2
        -0.377601 2 2
        0.73808 2 2
        2 2 2
        3.26192 2 2
        4.3776 2 2
        -0.330179 3.567 2
        0.745284 3.25472 2
        2 3.26192 2
        3.25472 3.25472 2
        4.33018 3.567 2
        -0.646369 4.64637 2
        0.432996 4.33018 2
        2 4.3776 2
        3.567 4.33018 2
        4.64637 4.64637 2
        -0.595009 -0.595009 3.79254
        0.459796 -0.282087 3.5402
        2 -0.330179 3.567
        3.5402 -0.282087 3.5402
        4.59501 -0.595009 3.79254
        -0.282087 0.459796 3.5402
        0.768798 0.768798 3.2312
        2 0.745284 3.25472
        3.2312 0.768798 3.2312
        4.28209 0.459796 3.5402
        -0.330179 2 3.567
        0.745284 2 3.25472
        2 2 3.26192
        3.25472 2 3.25472
        4.33018 2 3.567
        -0.282087 3.5402 3.5402
        0.768798 3.2312 3.2312
        2 3.25472 3.25472
        3.2312 3.2312 3.2312
        4.28209 3.5402 3.5402
        -0.595009 4.59501 3.79254
        0.459796 4.28209 3.5402
        2 4.33018 3.567
        3.5402 4.28209 3.5402
        4.59501 4.59501 3.79254
        -0.859901 -0.859901 4.8599
        0.207459 -0.595009 4.59501
        2 -0.646369 4.64637
        3.79254 -0.595009 4.59501
        4.8599 -0.859901 4.8599
        -0.595009 0.207459 4.59501
        0.459796 0.459796 4.28209
        2 0.432996 4.33018
        3.5402 0.459796 4.28209
        4.59501 0.207459 4.59501
        -0.646369 2 4.64637
        0.432996 2 4.33018
        2 2 4.3776
        3.567 2 4.33018
        4.64637 2 4.64637
        -0.595009 3.79254 4.59501
        0.459796 3.5402 4.28209
        2 3.567 4.33018
        3.5402 3.5402 4.28209
        4.59501 3.79254 4.59501
        -0.859901 4.8599 4.8599
        0.207459 4.59501 4.59501
        2 4.64637 4.64637
        3.79254 4.59501 4.59501
        4.8599 4.8599 4.8599
      </DataArray>
    </Points>
    <Cells>
      <DataArray type="Int32" Name="connectivity" format="ascii"/>
      <DataArray type="Int32" Name="offsets" format="ascii"/>
      <DataArray type="UInt8" Name="types" format="ascii"/>
    </Cells>
  </Piece>
  </UnstructuredGrid>
</VTKFile>
