<VTKFile type="UnstructuredGrid" version="0.1">
  <UnstructuredGrid>
  <Piece NumberOfPoints="125" NumberOfCells="0">
    <PointData Scalars="Radius">
      <DataArray type="Float64" Name="Radius" format="ascii">
        0.5
        0.5
        0.5
        0.5
        0.5
        0.5
        0.5
        0.5
        0.5
        0.5
        0.5
        0.5
        0.5
        0.5
        0.5
        0.5
        0.5
        0.5
        0.5
        0.5
        0.5
        0.5
        0.5
        0.5
        0.5
        0.5
        0.5
        0.5
        0.5
        0.5
        0.5
        0.5
        0.5
        0.5
        0.5
        0.5
        0.5
        0.5
        0.5
        0.5
        0.5
        0.5
        0.5
        0.5
        0.5
        0.5
        0.5
        0.5
        0.5
        0.5
        0.5
        0.5
        0.5
        0.5
        0.5
        0.5
        0.5
        0.5
        0.5
        0.5
        0.5
        0.5
        0.5
        0.5
        0.5
        0.5
        0.5
        0.5
        0.5
        0.5
        0.5
        0.5
        0.5
        0.5
        0.5
        0.5
        0.5
        0.5
        0.5
        0.5
        0.5
        0.5
        0.5
        0.5
        0.5
        0.5
        0.5
        0.5
        0.5
        0.5
        0.5
        0.5
        0.5
        0.5
        0.5
        0.5
        0.5
        0.5
        0.5
        0.5
        0.5
        0.5
        0.5
        0.5
        0.5
        0.5
        0.5
        0.5
        0.5
        0.5
        0.5
        0.5
        0.5
        0.5
        0.5
        0.5
        0.5
        0.5
        0.5
        0.5
        0.5
        0.5
        0.5
        0.5
        0.5
      </DataArray>
    </PointData>
    <Points>
      <DataArray type="Float64" NumberOfComponents="3" format="ascii">
        -0.501099 -0.501099 -0.501099
        0.669071 -0.448469 -0.448469
        2 -0.448972 -0.448972
        3.33093 -0.448469 -0.448469
        4.5011 -0.501099 -0.501099
        -0.448469 0.669071 -0.448469
        0.708494 0.708494 -0.385707
        2 0.710345 -0.386555
        3.29151 0.708494 -0.385707
        4.44847 0.669071 -0.448469
        -0.448972 2 -0.448972
        0.710345 2 -0.386555
        2 2 -0.387447
        3.28966 2 -0.386555
        4.44897 2 -0.448972
        -0.448469 3.33093 -0.448469
        0.708494 3.29151 -0.385707
        2 3.28966 -0.386555
        3.29151 3.29151 -0.385707
        4.44847 3.33093 -0.448469
        -0.501099 4.5011 -0.501099
        0.669071 4.44847 -0.448469
        2 4.44897 -0.448972
        3.33093 4.44847 -0.448469
        4.5011 4.5011 -0.501099
        -0.448469 -0.448469 0.669071
        0.708494 -0.385707 0.708494
        2 -0.386555 0.710345
        3.29151 -0.385707 0.708494
        4.44847 -0.448469 0.669071
        -0.385707 0.708494 0.708494
        0.761245 0.761245 0.761245
        2 0.763178 0.763178
        3.23875 0.761245 0.761245
        4.38571 0.708494 0.708494
        -0.386555 2 0.710345
        0.763178 2 0.763178
        2 2 0.765054
        3.23682 2 0.763178
        4.38655 2 0.710345
        -0.385707 3.29151 0.708494
        0.761245 3.23875 0.761245
        2 3.23682 0.763178
        3.23875 3.23875 0.761245
        4.38571 3.29151 0.708494
        -0.448469 4.44847 0.669071
        0.708494 4.38571 0.708494
        2 4.38655 0.710345
        3.29151 4.38571 0.708494
        4.44847 4.44847 0.669071
        -0.448972 -0.448972 2
        0.710345 -0.386555 2
        2 -0.387447 2
        3.28966 -0.386555 2
        4.44897 -0.448972 2
        -0.386555 0.710345 2
        0.763178 0.763178 2
        2 0.765054 2
        3.23682 0.763178 2
        4.38655 0.710345 2
        -0.387447 2 2
        0.765054 2 2
        2 2 2
        3.23495 2 2
        4.38745 2 2
        -0.386555 3.28966 2
        0.763178 3.23682 2
        2 3.23495 2
        3.23682 3.23682 2
        4.38655 3.28966 2
        -0.448972 4.44897 2
        0.710345 4.38655 2
        2 4.38745 2
        3.28966 4.38655 2
        4.44897 4.44897 2
        -0.448469 -0.448469 3.33093
        0.708494 -0.385707 3.29151
        2 -0.386555 3.28966
        3.29151 -0.385707 3.29151
        4.44847 -0.448469 3.33093
        -0.385707 0.708494 3.29151
        0.761245 0.761245 3.23875
        2 0.763178 3.23682
        3.23875 0.761245 3.23875
        4.38571 0.708494 3.29151
        -0.386555 2 3.28966
        0.763178 2 3.23682
        2 2 3.23495
        3.23682 2 3.23682
        4.38655 2 3.28966
        -0.385707 3.29151 3.29151
        0.761245 3.23875 3.23875
        2 3.23682 3.23682
        3.23875 3.23875 3.23875
        4.38571 3.29151 3.29151
        -0.448469 4.44847 3.33093
        0.708494 4.38571 3.29151
        2 4.38655 3.28966
        3.29151 4.38571 3.29151
        4.44847 4.44847 3.33093
        -0.501099 -0.501099 4.5011
        0.669071 -0.448469 4.44847
        2 -0.448972 4.44897
        3.33093 -0.448469 4.44847
        4.5011 -0.501099 4.5011
        -0.448469 0.669071 4.44847
        0.708494 0.708494 4.38571
        2 0.710345 4.38655
        3.29151 0.708494 4.38571
        4.44847 0.669071 4.44847
        -0.448972 2 4.44897
        0.710345 2 4.38655
        2 2 4.38745
        3.28966 2 4.38655
        4.44897 2 4.44897
        -0.448469 3.33093 4.44847
        0.708494 3.29151 4.38571
        2 3.28966 4.38655
        3.29151 3.29151 4.38571
        4.44847 3.33093 4.44847
        -0.501099 4.5011 4.5011
        0.669071 4.44847 4.44847
        2 4.44897 4.44897
        3.33093 4.44847 4.44847
        4.5011 4.5011 4.5011
      </DataArray>
    </Points>
    <Cells>
      <DataArray type="Int32" Name="connectivity" format="ascii"/>
      <DataArray type="Int32" Name="offsets" format="ascii"/>
      <DataArray type="UInt8" Name="types" format="ascii"/>
    </Cells>
  </Piece>
  </UnstructuredGrid>
</VTKFile>
