<VTKFile type="UnstructuredGrid" version="0.1">
  <UnstructuredGrid>
  <Piece NumberOfPoints="125" NumberOfCells="0">
    <PointData Scalars="Radius">
      <DataArray type="Float64" Name="Radius" format="ascii">
        0.5
        0.5
        0.5
        0.5
        0.5
        0.5
        0.5
        0.5
        0.5
        0.5
        0.5
        0.5
        0.5
        0.5
        0.5
        0.5
        0.5
        0.5
        0.5
        0.5
        0.5
        0.5
        0.5
        0.5
        0.5
        0.5
        0.5
        0.5
        0.5
        0.5
        0.5
        0.5
        0.5
        0.5
        0.5
        0.5
        0.5
        0.5
        0.5
        0.5
        0.5
        0.5
        0.5
        0.5
        0.5
        0.5
        0.5
        0.5
        0.5
        0.5
        0.5
        0.5
        0.5
        0.5
        0.5
        0.5
        0.5
        0.5
        0.5
        0.5
        0.5
        0.5
        0.5
        0.5
        0.5
        0.5
        0.5
        0.5
        0.5
        0.5
        0.5
        0.5
        0.5
        0.5
        0.5
        0.5
        0.5
        0.5
        0.5
        0.5
        0.5
        0.5
        0.5
        0.5
        0.5
        0.5
        0.5
        0.5
        0.5
        0.5
        0.5
        0.5
        0.5
        0.5
        0.5
        0.5
        0.5
        0.5
        0.5
        0.5
        0.5
        0.5
        0.5
        0.5
        0.5
        0.5
        0.5
        0.5
        0.5
        0.5
        0.5
        0.5
        0.5
        0.5
        0.5
        0.5
        0.5
        0.5
        0.5
        0.5
        0.5
        0.5
        0.5
        0.5
        0.5
      </DataArray>
    </PointData>
    <Points>
      <DataArray type="Float64" NumberOfComponents="3" format="ascii">
        -0.723874 -0.723874 -0.723874
        0.329781 -0.566731 -0.566731
        2 -0.590364 -0.590364
        3.67022 -0.566731 -0.566731
        4.72387 -0.723874 -0.723874
        -0.566731 0.329781 -0.566731
        0.483461 0.483461 -0.3615
        2 0.484021 -0.393551
        3.51654 0.483461 -0.3615
        4.56673 0.329781 -0.566731
        -0.590364 2 -0.590364
        0.484021 2 -0.393551
        2 2 -0.416492
        3.51598 2 -0.393551
        4.59036 2 -0.590364
        -0.566731 3.67022 -0.566731
        0.483461 3.51654 -0.3615
        2 3.51598 -0.393551
        3.51654 3.51654 -0.3615
        4.56673 3.67022 -0.566731
        -0.723874 4.72387 -0.723874
        0.329781 4.56673 -0.566731
        2 4.59036 -0.590364
        3.67022 4.56673 -0.566731
        4.72387 4.72387 -0.723874
        -0.566731 -0.566731 0.329781
        0.483461 -0.3615 0.483461
        2 -0.393551 0.484021
        3.51654 -0.3615 0.483461
        4.56673 -0.566731 0.329781
        -0.3615 0.483461 0.483461
        0.688033 0.688033 0.688033
        2 0.686711 0.686711
        3.31197 0.688033 0.688033
        4.3615 0.483461 0.483461
        -0.393551 2 0.484021
        0.686711 2 0.686711
        2 2 0.690644
        3.31329 2 0.686711
        4.39355 2 0.484021
        -0.3615 3.51654 0.483461
        0.688033 3.31197 0.688033
        2 3.31329 0.686711
        3.31197 3.31197 0.688033
        4.3615 3.51654 0.483461
        -0.566731 4.56673 0.329781
        0.483461 4.3615 0.483461
        2 4.39355 0.484021
        3.51654 4.3615 0.483461
        4.56673 4.56673 0.329781
        -0.590364 -0.590364 2
        0.484021 -0.393551 2
        2 -0.416492 2
        3.51598 -0.393551 2
        4.59036 -0.590364 2
        -0.393551 0.484021 2
        0.686711 0.686711 2
        2 0.690644 2
        3.31329 0.686711 2
        4.39355 0.484021 2
        -0.416492 2 2
        0.690644 2 2
        2 2 2
        3.30936 2 2
        4.41649 2 2
        -0.393551 3.51598 2
        0.686711 3.31329 2
        2 3.30936 2
        3.31329 3.31329 2
        4.39355 3.51598 2
        -0.590364 4.59036 2
        0.484021 4.39355 2
        2 4.41649 2
        3.51598 4.39355 2
        4.59036 4.59036 2
        -0.566731 -0.566731 3.67022
        0.483461 -0.3615 3.51654
        2 -0.393551 3.51598
        3.51654 -0.3615 3.51654
        4.56673 -0.566731 3.67022
        -0.3615 0.483461 3.51654
        0.688033 0.688033 3.31197
        2 0.686711 3.31329
        3.31197 0.688033 3.31197
        4.3615 0.483461 3.51654
        -0.393551 2 3.51598
        0.686711 2 3.31329
        2 2 3.30936
        3.31329 2 3.31329
        4.39355 2 3.51598
        -0.3615 3.51654 3.51654
        0.688033 3.31197 3.31197
        2 3.31329 3.31329
        3.31197 3.31197 3.31197
        4.3615 3.51654 3.51654
        -0.566731 4.56673 3.67022
        0.483461 4.3615 3.51654
        2 4.39355 3.51598
        3.51654 4.3615 3.51654
        4.56673 4.56673 3.67022
        -0.723874 -0.723874 4.72387
        0.329781 -0.566731 4.56673
        2 -0.590364 4.59036
        3.67022 -0.566731 4.56673
        4.72387 -0.723874 4.72387
        -0.566731 0.329781 4.56673
        0.483461 0.483461 4.3615
        2 0.484021 4.39355
        3.51654 0.483461 4.3615
        4.56673 0.329781 4.56673
        -0.590364 2 4.59036
        0.484021 2 4.39355
        2 2 4.41649
        3.51598 2 4.39355
        4.59036 2 4.59036
        -0.566731 3.67022 4.56673
        0.483461 3.51654 4.3615
        2 3.51598 4.39355
        3.51654 3.51654 4.3615
        4.56673 3.67022 4.56673
        -0.723874 4.72387 4.72387
        0.329781 4.56673 4.56673
        2 4.59036 4.59036
        3.67022 4.56673 4.56673
        4.72387 4.72387 4.72387
      </DataArray>
    </Points>
    <Cells>
      <DataArray type="Int32" Name="connectivity" format="ascii"/>
      <DataArray type="Int32" Name="offsets" format="ascii"/>
      <DataArray type="UInt8" Name="types" format="ascii"/>
    </Cells>
  </Piece>
  </UnstructuredGrid>
</VTKFile>
