<VTKFile type="UnstructuredGrid" version="0.1">
  <UnstructuredGrid>
  <Piece NumberOfPoints="125" NumberOfCells="0">
    <PointData Scalars="Radius">
      <DataArray type="Float64" Name="Radius" format="ascii">
        0.5
        0.5
        0.5
        0.5
        0.5
        0.5
        0.5
        0.5
        0.5
        0.5
        0.5
        0.5
        0.5
        0.5
        0.5
        0.5
        0.5
        0.5
        0.5
        0.5
        0.5
        0.5
        0.5
        0.5
        0.5
        0.5
        0.5
        0.5
        0.5
        0.5
        0.5
        0.5
        0.5
        0.5
        0.5
        0.5
        0.5
        0.5
        0.5
        0.5
        0.5
        0.5
        0.5
        0.5
        0.5
        0.5
        0.5
        0.5
        0.5
        0.5
        0.5
        0.5
        0.5
        0.5
        0.5
        0.5
        0.5
        0.5
        0.5
        0.5
        0.5
        0.5
        0.5
        0.5
        0.5
        0.5
        0.5
        0.5
        0.5
        0.5
        0.5
        0.5
        0.5
        0.5
        0.5
        0.5
        0.5
        0.5
        0.5
        0.5
        0.5
        0.5
        0.5
        0.5
        0.5
        0.5
        0.5
        0.5
        0.5
        0.5
        0.5
        0.5
        0.5
        0.5
        0.5
        0.5
        0.5
        0.5
        0.5
        0.5
        0.5
        0.5
        0.5
        0.5
        0.5
        0.5
        0.5
        0.5
        0.5
        0.5
        0.5
        0.5
        0.5
        0.5
        0.5
        0.5
        0.5
        0.5
        0.5
        0.5
        0.5
        0.5
        0.5
        0.5
        0.5
      </DataArray>
    </PointData>
    <Points>
      <DataArray type="Float64" NumberOfComponents="3" format="ascii">
        -1.0726 -1.0726 -1.0726
        0.161858 -0.675743 -0.675743
        2.00045 -0.610122 -0.610122
        3.77609 -0.650055 -0.650055
        5.18493 -1.18493 -1.18493
        -0.675743 0.161858 -0.675743
        0.547128 0.547128 -0.219828
        2.00011 0.631478 -0.194183
        3.45305 0.54695 -0.219675
        4.65006 0.223906 -0.650055
        -0.610122 2.00045 -0.610122
        0.631478 2.00011 -0.194183
        2 2 0.00743735
        3.36858 2 -0.194195
        4.6101 2 -0.610097
        -0.650055 3.77609 -0.650055
        0.54695 3.45305 -0.219675
        2 3.36858 -0.194195
        3.45305 3.45305 -0.219675
        4.65006 3.77609 -0.650055
        -1.18493 5.18493 -1.18493
        0.223906 4.65006 -0.650055
        2 4.6101 -0.610097
        3.77609 4.65006 -0.650055
        5.18493 5.18493 -1.18493
        -0.675743 -0.675743 0.161858
        0.547128 -0.219828 0.547128
        2.00011 -0.194183 0.631478
        3.45305 -0.219675 0.54695
        4.65006 -0.650055 0.223906
        -0.219828 0.547128 0.547128
        0.880604 0.880604 0.880604
        2.00003 0.915867 0.915867
        3.11949 0.880511 0.880511
        4.21967 0.546951 0.546951
        -0.194183 2.00011 0.631478
        0.915867 2.00003 0.915867
        2 2 0.988992
        3.08414 2 0.915865
        4.1942 2 0.631423
        -0.219675 3.45305 0.54695
        0.880511 3.11949 0.880511
        2 3.08414 0.915865
        3.11949 3.11949 0.880512
        4.21967 3.45305 0.546951
        -0.650055 4.65006 0.223906
        0.546951 4.21967 0.546951
        2 4.1942 0.631423
        3.45305 4.21967 0.546951
        4.65006 4.65006 0.223906
        -0.610122 -0.610122 2.00045
        0.631478 -0.194183 2.00011
        2 0.00743735 2
        3.36858 -0.194195 2
        4.6101 -0.610097 2
        -0.194183 0.631478 2.00011
        0.915867 0.915867 2.00003
        2 0.988992 2
        3.08414 0.915865 2
        4.1942 0.631423 2
        0.00743735 2 2
        0.988992 2 2
        2 2 2
        3.01101 2 2
        3.99256 2 2
        -0.194195 3.36858 2
        0.915865 3.08414 2
        2 3.01101 2
        3.08414 3.08414 2
        4.1942 3.36858 2
        -0.610097 4.6101 2
        0.631423 4.1942 2
        2 3.99256 2
        3.36858 4.1942 2
        4.6101 4.6101 2
        -0.650055 -0.650055 3.77609
        0.54695 -0.219675 3.45305
        2 -0.194195 3.36858
        3.45305 -0.219675 3.45305
        4.65006 -0.650055 3.77609
        -0.219675 0.54695 3.45305
        0.880511 0.880511 3.11949
        2 0.915865 3.08414
        3.11949 0.880512 3.11949
        4.21967 0.546951 3.45305
        -0.194195 2 3.36858
        0.915865 2 3.08414
        2 2 3.01101
        3.08414 2 3.08414
        4.1942 2 3.36858
        -0.219675 3.45305 3.45305
        0.880512 3.11949 3.11949
        2 3.08414 3.08414
        3.11949 3.11949 3.11949
        4.21967 3.45305 3.45305
        -0.650055 4.65006 3.77609
        0.546951 4.21967 3.45305
        2 4.1942 3.36858
        3.45305 4.21967 3.45305
        4.65006 4.65006 3.77609
        -1.18493 -1.18493 5.18493
        0.223906 -0.650055 4.65006
        2 -0.610097 4.6101
        3.77609 -0.650055 4.65006
        5.18493 -1.18493 5.18493
        -0.650055 0.223906 4.65006
        0.546951 0.546951 4.21967
        2 0.631423 4.1942
        3.45305 0.546951 4.21967
        4.65006 0.223906 4.65006
        -0.610097 2 4.6101
        0.631423 2 4.1942
        2 2 3.99256
        3.36858 2 4.1942
        4.6101 2 4.6101
        -0.650055 3.77609 4.65006
        0.546951 3.45305 4.21967
        2 3.36858 4.1942
        3.45305 3.45305 4.21967
        4.65006 3.77609 4.65006
        -1.18493 5.18493 5.18493
        0.223906 4.65006 4.65006
        2 4.6101 4.6101
        3.77609 4.65006 4.65006
        5.18493 5.18493 5.18493
      </DataArray>
    </Points>
    <Cells>
      <DataArray type="Int32" Name="connectivity" format="ascii"/>
      <DataArray type="Int32" Name="offsets" format="ascii"/>
      <DataArray type="UInt8" Name="types" format="ascii"/>
    </Cells>
  </Piece>
  </UnstructuredGrid>
</VTKFile>
