<VTKFile type="UnstructuredGrid" version="0.1">
  <UnstructuredGrid>
  <Piece NumberOfPoints="125" NumberOfCells="0">
    <PointData Scalars="Radius">
      <DataArray type="Float64" Name="Radius" format="ascii">
        0.5
        0.5
        0.5
        0.5
        0.5
        0.5
        0.5
        0.5
        0.5
        0.5
        0.5
        0.5
        0.5
        0.5
        0.5
        0.5
        0.5
        0.5
        0.5
        0.5
        0.5
        0.5
        0.5
        0.5
        0.5
        0.5
        0.5
        0.5
        0.5
        0.5
        0.5
        0.5
        0.5
        0.5
        0.5
        0.5
        0.5
        0.5
        0.5
        0.5
        0.5
        0.5
        0.5
        0.5
        0.5
        0.5
        0.5
        0.5
        0.5
        0.5
        0.5
        0.5
        0.5
        0.5
        0.5
        0.5
        0.5
        0.5
        0.5
        0.5
        0.5
        0.5
        0.5
        0.5
        0.5
        0.5
        0.5
        0.5
        0.5
        0.5
        0.5
        0.5
        0.5
        0.5
        0.5
        0.5
        0.5
        0.5
        0.5
        0.5
        0.5
        0.5
        0.5
        0.5
        0.5
        0.5
        0.5
        0.5
        0.5
        0.5
        0.5
        0.5
        0.5
        0.5
        0.5
        0.5
        0.5
        0.5
        0.5
        0.5
        0.5
        0.5
        0.5
        0.5
        0.5
        0.5
        0.5
        0.5
        0.5
        0.5
        0.5
        0.5
        0.5
        0.5
        0.5
        0.5
        0.5
        0.5
        0.5
        0.5
        0.5
        0.5
        0.5
        0.5
        0.5
      </DataArray>
    </PointData>
    <Points>
      <DataArray type="Float64" NumberOfComponents="3" format="ascii">
        -0.875523 -0.875523 -0.875523
        0.192364 -0.597246 -0.597246
        2 -0.652926 -0.652926
        3.80764 -0.597246 -0.597246
        4.87552 -0.875523 -0.875523
        -0.597246 0.192364 -0.597246
        0.46213 0.46213 -0.27918
        2 0.429537 -0.323021
        3.53787 0.46213 -0.27918
        4.59725 0.192364 -0.597246
        -0.652926 2 -0.652926
        0.429537 2 -0.323021
        2 2 -0.372205
        3.57046 2 -0.323021
        4.65293 2 -0.652926
        -0.597246 3.80764 -0.597246
        0.46213 3.53787 -0.27918
        2 3.57046 -0.323021
        3.53787 3.53787 -0.27918
        4.59725 3.80764 -0.597246
        -0.875523 4.87552 -0.875523
        0.192364 4.59725 -0.597246
        2 4.65293 -0.652926
        3.80764 4.59725 -0.597246
        4.87552 4.87552 -0.875523
        -0.597246 -0.597246 0.192364
        0.46213 -0.27918 0.46213
        2 -0.323021 0.429537
        3.53787 -0.27918 0.46213
        4.59725 -0.597246 0.192364
        -0.27918 0.46213 0.46213
        0.781318 0.781318 0.781318
        2 0.755686 0.755686
        3.21868 0.781318 0.781318
        4.27918 0.46213 0.46213
        -0.323021 2 0.429537
        0.755686 2 0.755686
        2 2 0.747039
        3.24431 2 0.755686
        4.32302 2 0.429537
        -0.27918 3.53787 0.46213
        0.781318 3.21868 0.781318
        2 3.24431 0.755686
        3.21868 3.21868 0.781318
        4.27918 3.53787 0.46213
        -0.597246 4.59725 0.192364
        0.46213 4.27918 0.46213
        2 4.32302 0.429537
        3.53787 4.27918 0.46213
        4.59725 4.59725 0.192364
        -0.652926 -0.652926 2
        0.429537 -0.323021 2
        2 -0.372205 2
        3.57046 -0.323021 2
        4.65293 -0.652926 2
        -0.323021 0.429537 2
        0.755686 0.755686 2
        2 0.747039 2
        3.24431 0.755686 2
        4.32302 0.429537 2
        -0.372205 2 2
        0.747039 2 2
        2 2 2
        3.25296 2 2
        4.37221 2 2
        -0.323021 3.57046 2
        0.755686 3.24431 2
        2 3.25296 2
        3.24431 3.24431 2
        4.32302 3.57046 2
        -0.652926 4.65293 2
        0.429537 4.32302 2
        2 4.37221 2
        3.57046 4.32302 2
        4.65293 4.65293 2
        -0.597246 -0.597246 3.80764
        0.46213 -0.27918 3.53787
        2 -0.323021 3.57046
        3.53787 -0.27918 3.53787
        4.59725 -0.597246 3.80764
        -0.27918 0.46213 3.53787
        0.781318 0.781318 3.21868
        2 0.755686 3.24431
        3.21868 0.781318 3.21868
        4.27918 0.46213 3.53787
        -0.323021 2 3.57046
        0.755686 2 3.24431
        2 2 3.25296
        3.24431 2 3.24431
        4.32302 2 3.57046
        -0.27918 3.53787 3.53787
        0.781318 3.21868 3.21868
        2 3.24431 3.24431
        3.21868 3.21868 3.21868
        4.27918 3.53787 3.53787
        -0.597246 4.59725 3.80764
        0.46213 4.27918 3.53787
        2 4.32302 3.57046
        3.53787 4.27918 3.53787
        4.59725 4.59725 3.80764
        -0.875523 -0.875523 4.87552
        0.192364 -0.597246 4.59725
        2 -0.652926 4.65293
        3.80764 -0.597246 4.59725
        4.87552 -0.875523 4.87552
        -0.597246 0.192364 4.59725
        0.46213 0.46213 4.27918
        2 0.429537 4.32302
        3.53787 0.46213 4.27918
        4.59725 0.192364 4.59725
        -0.652926 2 4.65293
        0.429537 2 4.32302
        2 2 4.37221
        3.57046 2 4.32302
        4.65293 2 4.65293
        -0.597246 3.80764 4.59725
        0.46213 3.53787 4.27918
        2 3.57046 4.32302
        3.53787 3.53787 4.27918
        4.59725 3.80764 4.59725
        -0.875523 4.87552 4.87552
        0.192364 4.59725 4.59725
        2 4.65293 4.65293
        3.80764 4.59725 4.59725
        4.87552 4.87552 4.87552
      </DataArray>
    </Points>
    <Cells>
      <DataArray type="Int32" Name="connectivity" format="ascii"/>
      <DataArray type="Int32" Name="offsets" format="ascii"/>
      <DataArray type="UInt8" Name="types" format="ascii"/>
    </Cells>
  </Piece>
  </UnstructuredGrid>
</VTKFile>
