<VTKFile type="UnstructuredGrid" version="0.1">
  <UnstructuredGrid>
  <Piece NumberOfPoints="125" NumberOfCells="0">
    <PointData Scalars="Radius">
      <DataArray type="Float64" Name="Radius" format="ascii">
        0.5
        0.5
        0.5
        0.5
        0.5
        0.5
        0.5
        0.5
        0.5
        0.5
        0.5
        0.5
        0.5
        0.5
        0.5
        0.5
        0.5
        0.5
        0.5
        0.5
        0.5
        0.5
        0.5
        0.5
        0.5
        0.5
        0.5
        0.5
        0.5
        0.5
        0.5
        0.5
        0.5
        0.5
        0.5
        0.5
        0.5
        0.5
        0.5
        0.5
        0.5
        0.5
        0.5
        0.5
        0.5
        0.5
        0.5
        0.5
        0.5
        0.5
        0.5
        0.5
        0.5
        0.5
        0.5
        0.5
        0.5
        0.5
        0.5
        0.5
        0.5
        0.5
        0.5
        0.5
        0.5
        0.5
        0.5
        0.5
        0.5
        0.5
        0.5
        0.5
        0.5
        0.5
        0.5
        0.5
        0.5
        0.5
        0.5
        0.5
        0.5
        0.5
        0.5
        0.5
        0.5
        0.5
        0.5
        0.5
        0.5
        0.5
        0.5
        0.5
        0.5
        0.5
        0.5
        0.5
        0.5
        0.5
        0.5
        0.5
        0.5
        0.5
        0.5
        0.5
        0.5
        0.5
        0.5
        0.5
        0.5
        0.5
        0.5
        0.5
        0.5
        0.5
        0.5
        0.5
        0.5
        0.5
        0.5
        0.5
        0.5
        0.5
        0.5
        0.5
        0.5
      </DataArray>
    </PointData>
    <Points>
      <DataArray type="Float64" NumberOfComponents="3" format="ascii">
        -1.07178 -1.07178 -1.07178
        0.160074 -0.673594 -0.673594
        2.0005 -0.604764 -0.604764
        3.77463 -0.646383 -0.646383
        5.19005 -1.19005 -1.19005
        -0.673594 0.160074 -0.673594
        0.54753 0.54753 -0.215377
        2.00012 0.635292 -0.187002
        3.45275 0.547245 -0.215269
        4.64638 0.225372 -0.646383
        -0.604764 2.0005 -0.604764
        0.635292 2.00012 -0.187002
        2 2 0.00886623
        3.36477 2 -0.187016
        4.60474 2 -0.604737
        -0.646383 3.77463 -0.646383
        0.547245 3.45275 -0.215269
        2 3.36477 -0.187016
        3.45275 3.45275 -0.215269
        4.64638 3.77463 -0.646383
        -1.19005 5.19005 -1.19005
        0.225372 4.64638 -0.646383
        2 4.60474 -0.604737
        3.77463 4.64638 -0.646383
        5.19005 5.19005 -1.19005
        -0.673594 -0.673594 0.160074
        0.54753 -0.215377 0.54753
        2.00012 -0.187002 0.635292
        3.45275 -0.215269 0.547245
        4.64638 -0.646383 0.225372
        -0.215377 0.54753 0.54753
        0.875013 0.875013 0.875013
        2.00003 0.910903 0.910903
        3.1251 0.874911 0.874911
        4.21527 0.547245 0.547245
        -0.187002 2.00012 0.635292
        0.910903 2.00003 0.910903
        2 2 0.992618
        3.0891 2 0.9109
        4.18702 2 0.635231
        -0.215269 3.45275 0.547245
        0.874911 3.1251 0.874911
        2 3.0891 0.9109
        3.12509 3.12509 0.874911
        4.21527 3.45275 0.547245
        -0.646383 4.64638 0.225372
        0.547245 4.21527 0.547245
        2 4.18702 0.635231
        3.45275 4.21527 0.547245
        4.64638 4.64638 0.225372
        -0.604764 -0.604764 2.0005
        0.635292 -0.187002 2.00012
        2 0.00886623 2
        3.36477 -0.187016 2
        4.60474 -0.604737 2
        -0.187002 0.635292 2.00012
        0.910903 0.910903 2.00003
        2 0.992618 2
        3.0891 0.9109 2
        4.18702 0.635231 2
        0.00886623 2 2
        0.992618 2 2
        2 2 2
        3.00738 2 2
        3.99113 2 2
        -0.187016 3.36477 2
        0.9109 3.0891 2
        2 3.00738 2
        3.0891 3.0891 2
        4.18702 3.36477 2
        -0.604737 4.60474 2
        0.635231 4.18702 2
        2 3.99113 2
        3.36477 4.18702 2
        4.60474 4.60474 2
        -0.646383 -0.646383 3.77463
        0.547245 -0.215269 3.45275
        2 -0.187016 3.36477
        3.45275 -0.215269 3.45275
        4.64638 -0.646383 3.77463
        -0.215269 0.547245 3.45275
        0.874911 0.874911 3.1251
        2 0.9109 3.0891
        3.12509 0.874911 3.12509
        4.21527 0.547245 3.45275
        -0.187016 2 3.36477
        0.9109 2 3.0891
        2 2 3.00738
        3.0891 2 3.0891
        4.18702 2 3.36477
        -0.215269 3.45275 3.45275
        0.874911 3.12509 3.12509
        2 3.0891 3.0891
        3.12509 3.12509 3.12509
        4.21527 3.45275 3.45275
        -0.646383 4.64638 3.77463
        0.547245 4.21527 3.45275
        2 4.18702 3.36477
        3.45275 4.21527 3.45275
        4.64638 4.64638 3.77463
        -1.19005 -1.19005 5.19005
        0.225372 -0.646383 4.64638
        2 -0.604737 4.60474
        3.77463 -0.646383 4.64638
        5.19005 -1.19005 5.19005
        -0.646383 0.225372 4.64638
        0.547245 0.547245 4.21527
        2 0.635231 4.18702
        3.45275 0.547245 4.21527
        4.64638 0.225372 4.64638
        -0.604737 2 4.60474
        0.635231 2 4.18702
        2 2 3.99113
        3.36477 2 4.18702
        4.60474 2 4.60474
        -0.646383 3.77463 4.64638
        0.547245 3.45275 4.21527
        2 3.36477 4.18702
        3.45275 3.45275 4.21527
        4.64638 3.77463 4.64638
        -1.19005 5.19005 5.19005
        0.225372 4.64638 4.64638
        2 4.60474 4.60474
        3.77463 4.64638 4.64638
        5.19005 5.19005 5.19005
      </DataArray>
    </Points>
    <Cells>
      <DataArray type="Int32" Name="connectivity" format="ascii"/>
      <DataArray type="Int32" Name="offsets" format="ascii"/>
      <DataArray type="UInt8" Name="types" format="ascii"/>
    </Cells>
  </Piece>
  </UnstructuredGrid>
</VTKFile>
